v 0 eval {set sim_annotation {(at 0.0) ftp traffic from node 19 to node 6}}
s 0.000985000 _19_ MAC  --- 0 AODV 55 [0 ffffffff 13 800] ------- [19:255 -1:255 30 0] [0x2 1 1 [6 0] [19 4]] (REQUEST)
r 0.003577021 _23_ MAC  --- 0 AODV 48 [0 ffffffff 13 800] ------- [19:255 -1:255 30 0] [0x2 1 1 [6 0] [19 4]] (REQUEST)
r 0.003577026 _12_ MAC  --- 0 AODV 48 [0 ffffffff 13 800] ------- [19:255 -1:255 30 0] [0x2 1 1 [6 0] [19 4]] (REQUEST)
r 0.003577035 _22_ MAC  --- 0 AODV 48 [0 ffffffff 13 800] ------- [19:255 -1:255 30 0] [0x2 1 1 [6 0] [19 4]] (REQUEST)
r 0.003577036 _2_ MAC  --- 0 AODV 48 [0 ffffffff 13 800] ------- [19:255 -1:255 30 0] [0x2 1 1 [6 0] [19 4]] (REQUEST)
r 0.003577045 _7_ MAC  --- 0 AODV 48 [0 ffffffff 13 800] ------- [19:255 -1:255 30 0] [0x2 1 1 [6 0] [19 4]] (REQUEST)
r 0.003577047 _8_ MAC  --- 0 AODV 48 [0 ffffffff 13 800] ------- [19:255 -1:255 30 0] [0x2 1 1 [6 0] [19 4]] (REQUEST)
r 0.003577049 _20_ MAC  --- 0 AODV 48 [0 ffffffff 13 800] ------- [19:255 -1:255 30 0] [0x2 1 1 [6 0] [19 4]] (REQUEST)
s 0.005502610 _22_ MAC  --- 0 AODV 55 [0 ffffffff 16 800] ------- [22:255 -1:255 29 0] [0x2 2 1 [6 0] [19 4]] (REQUEST)
s 0.007857188 _7_ MAC  --- 0 AODV 55 [0 ffffffff 7 800] ------- [7:255 -1:255 29 0] [0x2 2 1 [6 0] [19 4]] (REQUEST)
r 0.008094623 _12_ MAC  --- 0 AODV 48 [0 ffffffff 16 800] ------- [22:255 -1:255 29 0] [0x2 2 1 [6 0] [19 4]] (REQUEST)
r 0.008094626 _8_ MAC  --- 0 AODV 48 [0 ffffffff 16 800] ------- [22:255 -1:255 29 0] [0x2 2 1 [6 0] [19 4]] (REQUEST)
r 0.008094642 _7_ MAC  --- 0 AODV 48 [0 ffffffff 16 800] ------- [22:255 -1:255 29 0] [0x2 2 1 [6 0] [19 4]] (REQUEST)
r 0.008094644 _19_ MAC  --- 0 AODV 48 [0 ffffffff 16 800] ------- [22:255 -1:255 29 0] [0x2 2 1 [6 0] [19 4]] (REQUEST)
r 0.008094649 _11_ MAC  --- 0 AODV 48 [0 ffffffff 16 800] ------- [22:255 -1:255 29 0] [0x2 2 1 [6 0] [19 4]] (REQUEST)
r 0.008094655 _23_ MAC  --- 0 AODV 48 [0 ffffffff 16 800] ------- [22:255 -1:255 29 0] [0x2 2 1 [6 0] [19 4]] (REQUEST)
r 0.008094656 _2_ MAC  --- 0 AODV 48 [0 ffffffff 16 800] ------- [22:255 -1:255 29 0] [0x2 2 1 [6 0] [19 4]] (REQUEST)
s 0.010228206 _2_ MAC  --- 0 AODV 55 [0 ffffffff 2 800] ------- [2:255 -1:255 29 0] [0x2 2 1 [6 0] [19 4]] (REQUEST)
r 0.010449213 _8_ MAC  --- 0 AODV 48 [0 ffffffff 7 800] ------- [7:255 -1:255 29 0] [0x2 2 1 [6 0] [19 4]] (REQUEST)
r 0.010449213 _12_ MAC  --- 0 AODV 48 [0 ffffffff 7 800] ------- [7:255 -1:255 29 0] [0x2 2 1 [6 0] [19 4]] (REQUEST)
r 0.010449214 _2_ MAC  --- 0 AODV 48 [0 ffffffff 7 800] ------- [7:255 -1:255 29 0] [0x2 2 1 [6 0] [19 4]] (REQUEST)
r 0.010449217 _5_ MAC  --- 0 AODV 48 [0 ffffffff 7 800] ------- [7:255 -1:255 29 0] [0x2 2 1 [6 0] [19 4]] (REQUEST)
r 0.010449221 _22_ MAC  --- 0 AODV 48 [0 ffffffff 7 800] ------- [7:255 -1:255 29 0] [0x2 2 1 [6 0] [19 4]] (REQUEST)
r 0.010449221 _14_ MAC  --- 0 AODV 48 [0 ffffffff 7 800] ------- [7:255 -1:255 29 0] [0x2 2 1 [6 0] [19 4]] (REQUEST)
r 0.010449226 _11_ MAC  --- 0 AODV 48 [0 ffffffff 7 800] ------- [7:255 -1:255 29 0] [0x2 2 1 [6 0] [19 4]] (REQUEST)
r 0.010449227 _23_ MAC  --- 0 AODV 48 [0 ffffffff 7 800] ------- [7:255 -1:255 29 0] [0x2 2 1 [6 0] [19 4]] (REQUEST)
r 0.010449231 _16_ MAC  --- 0 AODV 48 [0 ffffffff 7 800] ------- [7:255 -1:255 29 0] [0x2 2 1 [6 0] [19 4]] (REQUEST)
r 0.010449233 _19_ MAC  --- 0 AODV 48 [0 ffffffff 7 800] ------- [7:255 -1:255 29 0] [0x2 2 1 [6 0] [19 4]] (REQUEST)
s 0.010978219 _11_ MAC  --- 0 AODV 55 [0 ffffffff b 800] ------- [11:255 -1:255 28 0] [0x2 3 1 [6 0] [19 4]] (REQUEST)
D 0.012180232 _7_ MAC  LQI 0 AODV 55 [0 ffffffff 2 800] ------- [2:255 -1:255 29 0] [0x2 2 1 [6 0] [19 4]] (REQUEST)
D 0.012180240 _12_ MAC  LQI 0 AODV 55 [0 ffffffff 2 800] ------- [2:255 -1:255 29 0] [0x2 2 1 [6 0] [19 4]] (REQUEST)
r 0.012820226 _23_ MAC  --- 0 AODV 48 [0 ffffffff 2 800] ------- [2:255 -1:255 29 0] [0x2 2 1 [6 0] [19 4]] (REQUEST)
r 0.012820230 _14_ MAC  --- 0 AODV 48 [0 ffffffff 2 800] ------- [2:255 -1:255 29 0] [0x2 2 1 [6 0] [19 4]] (REQUEST)
r 0.012820235 _5_ MAC  --- 0 AODV 48 [0 ffffffff 2 800] ------- [2:255 -1:255 29 0] [0x2 2 1 [6 0] [19 4]] (REQUEST)
r 0.012820243 _19_ MAC  --- 0 AODV 48 [0 ffffffff 2 800] ------- [2:255 -1:255 29 0] [0x2 2 1 [6 0] [19 4]] (REQUEST)
D 0.012930243 _8_ MAC  LQI 0 AODV 55 [0 ffffffff b 800] ------- [11:255 -1:255 28 0] [0x2 3 1 [6 0] [19 4]] (REQUEST)
D 0.012930258 _22_ MAC  LQI 0 AODV 55 [0 ffffffff b 800] ------- [11:255 -1:255 28 0] [0x2 3 1 [6 0] [19 4]] (REQUEST)
s 0.013396918 _8_ MAC  --- 0 AODV 55 [0 ffffffff 8 800] ------- [8:255 -1:255 29 0] [0x2 2 1 [6 0] [19 4]] (REQUEST)
r 0.013570262 _3_ MAC  --- 0 AODV 48 [0 ffffffff b 800] ------- [11:255 -1:255 28 0] [0x2 3 1 [6 0] [19 4]] (REQUEST)
s 0.013621233 _16_ MAC  --- 0 AODV 55 [0 ffffffff 10 800] ------- [16:255 -1:255 28 0] [0x2 3 1 [6 0] [19 4]] (REQUEST)
D 0.015348943 _7_ MAC  LQI 0 AODV 55 [0 ffffffff 8 800] ------- [8:255 -1:255 29 0] [0x2 2 1 [6 0] [19 4]] (REQUEST)
s 0.015655211 _20_ MAC  --- 0 AODV 55 [0 ffffffff 14 800] ------- [20:255 -1:255 29 0] [0x2 2 1 [6 0] [19 4]] (REQUEST)
r 0.015988935 _22_ MAC  --- 0 AODV 48 [0 ffffffff 8 800] ------- [8:255 -1:255 29 0] [0x2 2 1 [6 0] [19 4]] (REQUEST)
r 0.015988939 _12_ MAC  --- 0 AODV 48 [0 ffffffff 8 800] ------- [8:255 -1:255 29 0] [0x2 2 1 [6 0] [19 4]] (REQUEST)
r 0.015988943 _11_ MAC  --- 0 AODV 48 [0 ffffffff 8 800] ------- [8:255 -1:255 29 0] [0x2 2 1 [6 0] [19 4]] (REQUEST)
r 0.015988964 _2_ MAC  --- 0 AODV 48 [0 ffffffff 8 800] ------- [8:255 -1:255 29 0] [0x2 2 1 [6 0] [19 4]] (REQUEST)
r 0.015988965 _19_ MAC  --- 0 AODV 48 [0 ffffffff 8 800] ------- [8:255 -1:255 29 0] [0x2 2 1 [6 0] [19 4]] (REQUEST)
r 0.016213258 _0_ MAC  --- 0 AODV 48 [0 ffffffff 10 800] ------- [16:255 -1:255 28 0] [0x2 3 1 [6 0] [19 4]] (REQUEST)
r 0.016213263 _5_ MAC  --- 0 AODV 48 [0 ffffffff 10 800] ------- [16:255 -1:255 28 0] [0x2 3 1 [6 0] [19 4]] (REQUEST)
r 0.016213265 _3_ MAC  --- 0 AODV 48 [0 ffffffff 10 800] ------- [16:255 -1:255 28 0] [0x2 3 1 [6 0] [19 4]] (REQUEST)
r 0.016213273 _14_ MAC  --- 0 AODV 48 [0 ffffffff 10 800] ------- [16:255 -1:255 28 0] [0x2 3 1 [6 0] [19 4]] (REQUEST)
r 0.018247241 _4_ MAC  --- 0 AODV 48 [0 ffffffff 14 800] ------- [20:255 -1:255 29 0] [0x2 2 1 [6 0] [19 4]] (REQUEST)
r 0.018247258 _21_ MAC  --- 0 AODV 48 [0 ffffffff 14 800] ------- [20:255 -1:255 29 0] [0x2 2 1 [6 0] [19 4]] (REQUEST)
r 0.018247259 _15_ MAC  --- 0 AODV 48 [0 ffffffff 14 800] ------- [20:255 -1:255 29 0] [0x2 2 1 [6 0] [19 4]] (REQUEST)
r 0.018247260 _19_ MAC  --- 0 AODV 48 [0 ffffffff 14 800] ------- [20:255 -1:255 29 0] [0x2 2 1 [6 0] [19 4]] (REQUEST)
s 0.019450129 _5_ MAC  --- 0 AODV 55 [0 ffffffff 5 800] ------- [5:255 -1:255 28 0] [0x2 3 1 [6 0] [19 4]] (REQUEST)
s 0.021077143 _15_ MAC  --- 0 AODV 55 [0 ffffffff f 800] ------- [15:255 -1:255 28 0] [0x2 3 1 [6 0] [19 4]] (REQUEST)
s 0.021259899 _12_ MAC  --- 0 AODV 55 [0 ffffffff c 800] ------- [12:255 -1:255 29 0] [0x2 2 1 [6 0] [19 4]] (REQUEST)
D 0.021402157 _2_ MAC  LQI 0 AODV 55 [0 ffffffff 5 800] ------- [5:255 -1:255 28 0] [0x2 3 1 [6 0] [19 4]] (REQUEST)
r 0.022042138 _14_ MAC  --- 0 AODV 48 [0 ffffffff 5 800] ------- [5:255 -1:255 28 0] [0x2 3 1 [6 0] [19 4]] (REQUEST)
r 0.022042160 _16_ MAC  --- 0 AODV 48 [0 ffffffff 5 800] ------- [5:255 -1:255 28 0] [0x2 3 1 [6 0] [19 4]] (REQUEST)
r 0.022042165 _0_ MAC  --- 0 AODV 48 [0 ffffffff 5 800] ------- [5:255 -1:255 28 0] [0x2 3 1 [6 0] [19 4]] (REQUEST)
s 0.022807343 _0_ MAC  --- 0 AODV 55 [0 ffffffff 0 800] ------- [0:255 -1:255 27 0] [0x2 4 1 [6 0] [19 4]] (REQUEST)
D 0.023211924 _7_ MAC  LQI 0 AODV 55 [0 ffffffff c 800] ------- [12:255 -1:255 29 0] [0x2 2 1 [6 0] [19 4]] (REQUEST)
D 0.023211931 _23_ MAC  LQI 0 AODV 55 [0 ffffffff c 800] ------- [12:255 -1:255 29 0] [0x2 2 1 [6 0] [19 4]] (REQUEST)
r 0.023669173 _4_ MAC  --- 0 AODV 48 [0 ffffffff f 800] ------- [15:255 -1:255 28 0] [0x2 3 1 [6 0] [19 4]] (REQUEST)
r 0.023669178 _13_ MAC  --- 0 AODV 48 [0 ffffffff f 800] ------- [15:255 -1:255 28 0] [0x2 3 1 [6 0] [19 4]] (REQUEST)
r 0.023669191 _20_ MAC  --- 0 AODV 48 [0 ffffffff f 800] ------- [15:255 -1:255 28 0] [0x2 3 1 [6 0] [19 4]] (REQUEST)
r 0.023851912 _22_ MAC  --- 0 AODV 48 [0 ffffffff c 800] ------- [12:255 -1:255 29 0] [0x2 2 1 [6 0] [19 4]] (REQUEST)
r 0.023851920 _8_ MAC  --- 0 AODV 48 [0 ffffffff c 800] ------- [12:255 -1:255 29 0] [0x2 2 1 [6 0] [19 4]] (REQUEST)
r 0.023851925 _19_ MAC  --- 0 AODV 48 [0 ffffffff c 800] ------- [12:255 -1:255 29 0] [0x2 2 1 [6 0] [19 4]] (REQUEST)
r 0.023851944 _11_ MAC  --- 0 AODV 48 [0 ffffffff c 800] ------- [12:255 -1:255 29 0] [0x2 2 1 [6 0] [19 4]] (REQUEST)
s 0.024606726 _3_ MAC  --- 0 AODV 55 [0 ffffffff 3 800] ------- [3:255 -1:255 27 0] [0x2 4 1 [6 0] [19 4]] (REQUEST)
D 0.024759368 _16_ MAC  LQI 0 AODV 55 [0 ffffffff 0 800] ------- [0:255 -1:255 27 0] [0x2 4 1 [6 0] [19 4]] (REQUEST)
r 0.025399379 _5_ MAC  --- 0 AODV 48 [0 ffffffff 0 800] ------- [0:255 -1:255 27 0] [0x2 4 1 [6 0] [19 4]] (REQUEST)
r 0.025399385 _14_ MAC  --- 0 AODV 48 [0 ffffffff 0 800] ------- [0:255 -1:255 27 0] [0x2 4 1 [6 0] [19 4]] (REQUEST)
s 0.025572517 _21_ MAC  --- 0 AODV 55 [0 ffffffff 15 800] ------- [21:255 -1:255 28 0] [0x2 3 1 [6 0] [19 4]] (REQUEST)
s 0.025640923 _13_ MAC  --- 0 AODV 55 [0 ffffffff d 800] ------- [13:255 -1:255 27 0] [0x2 4 1 [6 0] [19 4]] (REQUEST)
r 0.027198769 _11_ MAC  --- 0 AODV 48 [0 ffffffff 3 800] ------- [3:255 -1:255 27 0] [0x2 4 1 [6 0] [19 4]] (REQUEST)
s 0.027414992 _4_ MAC  --- 0 AODV 55 [0 ffffffff 4 800] ------- [4:255 -1:255 28 0] [0x2 3 1 [6 0] [19 4]] (REQUEST)
r 0.028164545 _24_ MAC  --- 0 AODV 48 [0 ffffffff 15 800] ------- [21:255 -1:255 28 0] [0x2 3 1 [6 0] [19 4]] (REQUEST)
r 0.028232962 _9_ MAC  --- 0 AODV 48 [0 ffffffff d 800] ------- [13:255 -1:255 27 0] [0x2 4 1 [6 0] [19 4]] (REQUEST)
r 0.028232968 _10_ MAC  --- 0 AODV 48 [0 ffffffff d 800] ------- [13:255 -1:255 27 0] [0x2 4 1 [6 0] [19 4]] (REQUEST)
D 0.029367022 _20_ MAC  LQI 0 AODV 55 [0 ffffffff 4 800] ------- [4:255 -1:255 28 0] [0x2 3 1 [6 0] [19 4]] (REQUEST)
D 0.029367022 _15_ MAC  LQI 0 AODV 55 [0 ffffffff 4 800] ------- [4:255 -1:255 28 0] [0x2 3 1 [6 0] [19 4]] (REQUEST)
s 0.030782469 _24_ MAC  --- 0 AODV 55 [0 ffffffff 18 800] ------- [24:255 -1:255 27 0] [0x2 4 1 [6 0] [19 4]] (REQUEST)
s 0.032292858 _10_ MAC  --- 0 AODV 55 [0 ffffffff a 800] ------- [10:255 -1:255 26 0] [0x2 5 1 [6 0] [19 4]] (REQUEST)
s 0.032375422 _14_ MAC  --- 0 AODV 55 [0 ffffffff e 800] ------- [14:255 -1:255 28 0] [0x2 3 1 [6 0] [19 4]] (REQUEST)
r 0.033374497 _21_ MAC  --- 0 AODV 48 [0 ffffffff 18 800] ------- [24:255 -1:255 27 0] [0x2 4 1 [6 0] [19 4]] (REQUEST)
r 0.033374499 _6_ MAC  --- 0 AODV 48 [0 ffffffff 18 800] ------- [24:255 -1:255 27 0] [0x2 4 1 [6 0] [19 4]] (REQUEST)
r 0.034884886 _9_ MAC  --- 0 AODV 48 [0 ffffffff a 800] ------- [10:255 -1:255 26 0] [0x2 5 1 [6 0] [19 4]] (REQUEST)
r 0.034884903 _13_ MAC  --- 0 AODV 48 [0 ffffffff a 800] ------- [10:255 -1:255 26 0] [0x2 5 1 [6 0] [19 4]] (REQUEST)
r 0.034967431 _5_ MAC  --- 0 AODV 48 [0 ffffffff e 800] ------- [14:255 -1:255 28 0] [0x2 3 1 [6 0] [19 4]] (REQUEST)
r 0.034967446 _2_ MAC  --- 0 AODV 48 [0 ffffffff e 800] ------- [14:255 -1:255 28 0] [0x2 3 1 [6 0] [19 4]] (REQUEST)
r 0.034967455 _7_ MAC  --- 0 AODV 48 [0 ffffffff e 800] ------- [14:255 -1:255 28 0] [0x2 3 1 [6 0] [19 4]] (REQUEST)
r 0.034967462 _16_ MAC  --- 0 AODV 48 [0 ffffffff e 800] ------- [14:255 -1:255 28 0] [0x2 3 1 [6 0] [19 4]] (REQUEST)
r 0.034967464 _0_ MAC  --- 0 AODV 48 [0 ffffffff e 800] ------- [14:255 -1:255 28 0] [0x2 3 1 [6 0] [19 4]] (REQUEST)
r 0.034967464 _23_ MAC  --- 0 AODV 48 [0 ffffffff e 800] ------- [14:255 -1:255 28 0] [0x2 3 1 [6 0] [19 4]] (REQUEST)
s 0.035583435 _9_ MAC  --- 0 AODV 55 [0 ffffffff 9 800] ------- [9:255 -1:255 26 0] [0x2 5 1 [6 0] [19 4]] (REQUEST)
s 0.035964499 _6_ MAC  --- 0 ARP 35 [0 ffffffff 6 806] ------- [REQUEST 6/6 0/24]
r 0.037916529 _24_ MAC  --- 0 ARP 28 [0 ffffffff 6 806] ------- [REQUEST 6/6 0/24]
r 0.038175463 _10_ MAC  --- 0 AODV 48 [0 ffffffff 9 800] ------- [9:255 -1:255 26 0] [0x2 5 1 [6 0] [19 4]] (REQUEST)
r 0.038175474 _13_ MAC  --- 0 AODV 48 [0 ffffffff 9 800] ------- [9:255 -1:255 26 0] [0x2 5 1 [6 0] [19 4]] (REQUEST)
s 0.039841529 _24_ MAC  --- 0 ARP 35 [0 6 18 806] ------- [REPLY 24/24 6/6]
s 0.041345559 _6_ MAC  --- 0 ACK 5 [0 18 6 0] 
r 0.041697589 _24_ MAC  --- 0 ACK 5 [0 18 6 0] 
r 0.042337559 _6_ MAC  --- 0 ARP 28 [0 6 18 806] ------- [REPLY 24/24 6/6]
s 0.044582559 _6_ MAC  --- 0 AODV 51 [0 18 6 800] ------- [6:255 19:255 30 24] [0x4 1 [6 4] 10.000000] (REPLY)
s 0.046598589 _24_ MAC  --- 0 ACK 5 [0 6 18 0] 
r 0.046950619 _6_ MAC  --- 0 ACK 5 [0 6 18 0] 
r 0.047590589 _24_ MAC  --- 0 AODV 44 [0 18 6 800] ------- [6:255 19:255 30 24] [0x4 1 [6 4] 10.000000] (REPLY)
s 0.050180589 _24_ MAC  --- 0 ARP 35 [0 ffffffff 18 806] ------- [REQUEST 24/24 0/21]
r 0.052132617 _21_ MAC  --- 0 ARP 28 [0 ffffffff 18 806] ------- [REQUEST 24/24 0/21]
r 0.052132619 _6_ MAC  --- 0 ARP 28 [0 ffffffff 18 806] ------- [REQUEST 24/24 0/21]
s 0.054697617 _21_ MAC  --- 0 ARP 35 [0 18 15 806] ------- [REPLY 21/21 24/24]
s 0.056201646 _24_ MAC  --- 0 ACK 5 [0 15 18 0] 
r 0.056553674 _21_ MAC  --- 0 ACK 5 [0 15 18 0] 
r 0.057193646 _24_ MAC  --- 0 ARP 28 [0 18 15 806] ------- [REPLY 21/21 24/24]
s 0.059118646 _24_ MAC  --- 0 AODV 51 [0 15 18 800] ------- [6:255 19:255 29 21] [0x4 2 [6 4] 10.000000] (REPLY)
s 0.061134674 _21_ MAC  --- 0 ACK 5 [0 18 15 0] 
r 0.061486703 _24_ MAC  --- 0 ACK 5 [0 18 15 0] 
r 0.062126674 _21_ MAC  --- 0 AODV 44 [0 15 18 800] ------- [6:255 19:255 29 21] [0x4 2 [6 4] 10.000000] (REPLY)
s 0.062476674 _21_ MAC  --- 0 ARP 35 [0 ffffffff 15 806] ------- [REQUEST 21/21 0/20]
r 0.064428703 _24_ MAC  --- 0 ARP 28 [0 ffffffff 15 806] ------- [REQUEST 21/21 0/20]
r 0.064428721 _20_ MAC  --- 0 ARP 28 [0 ffffffff 15 806] ------- [REQUEST 21/21 0/20]
s 0.066673721 _20_ MAC  --- 0 ARP 35 [0 15 14 806] ------- [REPLY 20/20 21/21]
s 0.068177768 _21_ MAC  --- 0 ACK 5 [0 14 15 0] 
r 0.068529815 _20_ MAC  --- 0 ACK 5 [0 14 15 0] 
r 0.069169768 _21_ MAC  --- 0 ARP 28 [0 15 14 806] ------- [REPLY 20/20 21/21]
s 0.070454768 _21_ MAC  --- 0 AODV 51 [0 14 15 800] ------- [6:255 19:255 28 20] [0x4 3 [6 4] 10.000000] (REPLY)
s 0.072470815 _20_ MAC  --- 0 ACK 5 [0 15 14 0] 
r 0.072822862 _21_ MAC  --- 0 ACK 5 [0 15 14 0] 
r 0.073462815 _20_ MAC  --- 0 AODV 44 [0 14 15 800] ------- [6:255 19:255 28 20] [0x4 3 [6 4] 10.000000] (REPLY)
s 0.075092815 _20_ MAC  --- 0 ARP 35 [0 ffffffff 14 806] ------- [REQUEST 20/20 0/19]
r 0.077044845 _4_ MAC  --- 0 ARP 28 [0 ffffffff 14 806] ------- [REQUEST 20/20 0/19]
r 0.077044862 _21_ MAC  --- 0 ARP 28 [0 ffffffff 14 806] ------- [REQUEST 20/20 0/19]
r 0.077044863 _15_ MAC  --- 0 ARP 28 [0 ffffffff 14 806] ------- [REQUEST 20/20 0/19]
r 0.077044864 _19_ MAC  --- 0 ARP 28 [0 ffffffff 14 806] ------- [REQUEST 20/20 0/19]
s 0.079609864 _19_ MAC  --- 0 ARP 35 [0 14 13 806] ------- [REPLY 19/19 20/20]
s 0.081113913 _20_ MAC  --- 0 ACK 5 [0 13 14 0] 
r 0.081465962 _19_ MAC  --- 0 ACK 5 [0 13 14 0] 
r 0.082105913 _20_ MAC  --- 0 ARP 28 [0 14 13 806] ------- [REPLY 19/19 20/20]
s 0.082430913 _20_ MAC  --- 0 AODV 51 [0 13 14 800] ------- [6:255 19:255 27 19] [0x4 4 [6 4] 10.000000] (REPLY)
s 0.084446962 _19_ MAC  --- 0 ACK 5 [0 14 13 0] 
r 0.084799011 _20_ MAC  --- 0 ACK 5 [0 14 13 0] 
r 0.085438962 _19_ MAC  --- 0 AODV 44 [0 13 14 800] ------- [6:255 19:255 27 19] [0x4 4 [6 4] 10.000000] (REPLY)
s 0.088048962 _19_ MAC  --- 0 tcp 47 [0 14 13 800] ------- [19:0 6:0 30 20] [0 0] 0 0
s 0.089937011 _20_ MAC  --- 0 ACK 5 [0 13 14 0] 
r 0.090289060 _19_ MAC  --- 0 ACK 5 [0 13 14 0] 
r 0.090929011 _20_ MAC  --- 0 tcp 40 [0 14 13 800] ------- [19:0 6:0 30 20] [0 0] 1 0
s 0.092899011 _20_ MAC  --- 0 tcp 47 [0 15 14 800] ------- [19:0 6:0 29 21] [0 0] 1 0
s 0.094787058 _21_ MAC  --- 0 ACK 5 [0 14 15 0] 
r 0.095139105 _20_ MAC  --- 0 ACK 5 [0 14 15 0] 
r 0.095779058 _21_ MAC  --- 0 tcp 40 [0 15 14 800] ------- [19:0 6:0 29 21] [0 0] 2 0
s 0.097429058 _21_ MAC  --- 0 tcp 47 [0 18 15 800] ------- [19:0 6:0 28 24] [0 0] 2 0
s 0.099317086 _24_ MAC  --- 0 ACK 5 [0 15 18 0] 
r 0.099669115 _21_ MAC  --- 0 ACK 5 [0 15 18 0] 
r 0.100309086 _24_ MAC  --- 0 tcp 40 [0 18 15 800] ------- [19:0 6:0 28 24] [0 0] 3 0
s 0.101639086 _24_ MAC  --- 0 tcp 47 [0 6 18 800] ------- [19:0 6:0 27 6] [0 0] 3 0
s 0.103527116 _6_ MAC  --- 0 ACK 5 [0 18 6 0] 
r 0.103879146 _24_ MAC  --- 0 ACK 5 [0 18 6 0] 
r 0.104519116 _6_ MAC  --- 0 tcp 40 [0 6 18 800] ------- [19:0 6:0 27 6] [0 0] 4 0
s 0.106169116 _6_ MAC  --- 1 ack 47 [0 18 6 800] ------- [6:0 19:0 30 24] [0 0] 0 0
s 0.108057146 _24_ MAC  --- 1 ACK 5 [0 6 18 0] 
r 0.108409176 _6_ MAC  --- 1 ACK 5 [0 6 18 0] 
r 0.109049146 _24_ MAC  --- 1 ack 40 [0 18 6 800] ------- [6:0 19:0 30 24] [0 0] 1 0
s 0.110699146 _24_ MAC  --- 1 ack 47 [0 15 18 800] ------- [6:0 19:0 29 21] [0 0] 1 0
s 0.112587175 _21_ MAC  --- 1 ACK 5 [0 18 15 0] 
r 0.112939203 _24_ MAC  --- 1 ACK 5 [0 18 15 0] 
r 0.113579175 _21_ MAC  --- 1 ack 40 [0 15 18 800] ------- [6:0 19:0 29 21] [0 0] 2 0
s 0.116189175 _21_ MAC  --- 1 ack 47 [0 14 15 800] ------- [6:0 19:0 28 20] [0 0] 2 0
s 0.118077222 _20_ MAC  --- 1 ACK 5 [0 15 14 0] 
r 0.118429268 _21_ MAC  --- 1 ACK 5 [0 15 14 0] 
r 0.119069222 _20_ MAC  --- 1 ack 40 [0 14 15 800] ------- [6:0 19:0 28 20] [0 0] 3 0
s 0.120399222 _20_ MAC  --- 1 ack 47 [0 13 14 800] ------- [6:0 19:0 27 19] [0 0] 3 0
s 0.122287271 _19_ MAC  --- 1 ACK 5 [0 14 13 0] 
r 0.122639320 _20_ MAC  --- 1 ACK 5 [0 14 13 0] 
r 0.123279271 _19_ MAC  --- 1 ack 40 [0 13 14 800] ------- [6:0 19:0 27 19] [0 0] 4 0
s 0.123649271 _19_ MAC  --- 2 tcp 107 [0 14 13 800] ------- [19:0 6:0 30 20] [1 0] 0 0
s 0.127457320 _20_ MAC  --- 2 ACK 5 [0 13 14 0] 
r 0.127809369 _19_ MAC  --- 2 ACK 5 [0 13 14 0] 
s 0.128129369 _19_ MAC  --- 3 tcp 107 [0 14 13 800] ------- [19:0 6:0 30 20] [2 0] 0 0
r 0.128449320 _20_ MAC  --- 2 tcp 100 [0 14 13 800] ------- [19:0 6:0 30 20] [1 0] 1 0
s 0.131937418 _20_ MAC  --- 3 ACK 5 [0 13 14 0] 
r 0.132289467 _19_ MAC  --- 3 ACK 5 [0 13 14 0] 
r 0.132929418 _20_ MAC  --- 3 tcp 100 [0 14 13 800] ------- [19:0 6:0 30 20] [2 0] 1 0
s 0.134849418 _20_ MAC  --- 2 tcp 107 [0 15 14 800] ------- [19:0 6:0 29 21] [1 0] 1 0
s 0.138657464 _21_ MAC  --- 2 ACK 5 [0 14 15 0] 
r 0.139009511 _20_ MAC  --- 2 ACK 5 [0 14 15 0] 
r 0.139649464 _21_ MAC  --- 2 tcp 100 [0 15 14 800] ------- [19:0 6:0 29 21] [1 0] 2 0
s 0.140659464 _21_ MAC  --- 2 tcp 107 [0 18 15 800] ------- [19:0 6:0 28 24] [1 0] 2 0
s 0.144467493 _24_ MAC  --- 2 ACK 5 [0 15 18 0] 
r 0.144819521 _21_ MAC  --- 2 ACK 5 [0 15 18 0] 
r 0.145459493 _24_ MAC  --- 2 tcp 100 [0 18 15 800] ------- [19:0 6:0 28 24] [1 0] 3 0
s 0.145665511 _20_ MAC  --- 3 tcp 107 [0 15 14 800] ------- [19:0 6:0 29 21] [2 0] 1 0
s 0.147429493 _24_ MAC  --- 2 tcp 107 [0 6 18 800] ------- [19:0 6:0 27 6] [1 0] 3 0
D 0.149281558 _21_ MAC  LQI 3 tcp 107 [0 15 14 800] ------- [19:0 6:0 29 21] [2 0] 1 0
s 0.150465511 _20_ MAC  --- 3 tcp 107 [0 15 14 800] ------- [19:0 6:0 29 21] [2 0] 1 0
s 0.151237523 _6_ MAC  --- 2 ACK 5 [0 18 6 0] 
r 0.151589553 _24_ MAC  --- 2 ACK 5 [0 18 6 0] 
r 0.152229523 _6_ MAC  --- 2 tcp 100 [0 6 18 800] ------- [19:0 6:0 27 6] [1 0] 4 0
s 0.153559523 _6_ MAC  --- 4 ack 47 [0 18 6 800] ------- [6:0 19:0 30 24] [1 0] 0 0
D 0.154081558 _21_ MAC  LQI 3 tcp 107 [0 15 14 800] ------- [19:0 6:0 29 21] [2 0] 1 0
s 0.155447553 _24_ MAC  --- 4 ACK 5 [0 6 18 0] 
r 0.155799583 _6_ MAC  --- 4 ACK 5 [0 6 18 0] 
s 0.155905511 _20_ MAC  --- 3 tcp 107 [0 15 14 800] ------- [19:0 6:0 29 21] [2 0] 1 0
r 0.156439553 _24_ MAC  --- 4 ack 40 [0 18 6 800] ------- [6:0 19:0 30 24] [1 0] 1 0
s 0.157449553 _24_ MAC  --- 4 ack 47 [0 15 18 800] ------- [6:0 19:0 29 21] [1 0] 1 0
D 0.159145581 _21_ MAC  LQI 4 ack 47 [0 15 18 800] ------- [6:0 19:0 29 21] [1 0] 1 0
s 0.160969553 _24_ MAC  --- 4 ack 47 [0 15 18 800] ------- [6:0 19:0 29 21] [1 0] 1 0
s 0.162305511 _20_ MAC  --- 3 tcp 107 [0 15 14 800] ------- [19:0 6:0 29 21] [2 0] 1 0
D 0.162665581 _21_ MAC  LQI 4 ack 47 [0 15 18 800] ------- [6:0 19:0 29 21] [1 0] 1 0
s 0.164489553 _24_ MAC  --- 4 ack 47 [0 15 18 800] ------- [6:0 19:0 29 21] [1 0] 1 0
D 0.166185581 _21_ MAC  LQI 4 ack 47 [0 15 18 800] ------- [6:0 19:0 29 21] [1 0] 1 0
D 0.166785511 _20_ RTR  CBK 3 tcp 100 [0 15 14 800] ------- [19:0 6:0 29 21] [2 0] 1 0
s 0.169370511 _20_ MAC  --- 0 AODV 39 [0 ffffffff 14 800] ------- [20:255 -1:255 1 0] [0x8 1 [6 0] 0.000000] (ERROR)
s 0.169609553 _24_ MAC  --- 4 ack 47 [0 15 18 800] ------- [6:0 19:0 29 21] [1 0] 1 0
D 0.171305581 _21_ MAC  LQI 4 ack 47 [0 15 18 800] ------- [6:0 19:0 29 21] [1 0] 1 0
r 0.171450542 _4_ MAC  --- 0 AODV 32 [0 ffffffff 14 800] ------- [20:255 -1:255 1 0] [0x8 1 [6 0] 0.000000] (ERROR)
r 0.171450559 _15_ MAC  --- 0 AODV 32 [0 ffffffff 14 800] ------- [20:255 -1:255 1 0] [0x8 1 [6 0] 0.000000] (ERROR)
r 0.171450560 _19_ MAC  --- 0 AODV 32 [0 ffffffff 14 800] ------- [20:255 -1:255 1 0] [0x8 1 [6 0] 0.000000] (ERROR)
D 0.172169553 _24_ RTR  CBK 4 ack 40 [0 15 18 800] ------- [6:0 19:0 29 21] [1 0] 1 0
s 0.172834553 _24_ MAC  --- 0 AODV 39 [0 ffffffff 18 800] ------- [24:255 -1:255 1 0] [0x8 1 [19 0] 0.000000] (ERROR)
r 0.174914581 _21_ MAC  --- 0 AODV 32 [0 ffffffff 18 800] ------- [24:255 -1:255 1 0] [0x8 1 [19 0] 0.000000] (ERROR)
r 0.174914583 _6_ MAC  --- 0 AODV 32 [0 ffffffff 18 800] ------- [24:255 -1:255 1 0] [0x8 1 [19 0] 0.000000] (ERROR)
v 0.29999999999999999 eval {set sim_annotation {(at 0.3) ftp traffic from node 10 to node 4}}
s 0.300345000 _10_ MAC  --- 0 AODV 55 [0 ffffffff a 800] ------- [10:255 -1:255 30 0] [0x2 1 1 [4 0] [10 4]] (REQUEST)
r 0.302937028 _9_ MAC  --- 0 AODV 48 [0 ffffffff a 800] ------- [10:255 -1:255 30 0] [0x2 1 1 [4 0] [10 4]] (REQUEST)
r 0.302937045 _13_ MAC  --- 0 AODV 48 [0 ffffffff a 800] ------- [10:255 -1:255 30 0] [0x2 1 1 [4 0] [10 4]] (REQUEST)
s 0.308866782 _13_ MAC  --- 0 AODV 55 [0 ffffffff d 800] ------- [13:255 -1:255 29 0] [0x2 2 1 [4 0] [10 4]] (REQUEST)
r 0.311458817 _15_ MAC  --- 0 AODV 48 [0 ffffffff d 800] ------- [13:255 -1:255 29 0] [0x2 2 1 [4 0] [10 4]] (REQUEST)
r 0.311458821 _9_ MAC  --- 0 AODV 48 [0 ffffffff d 800] ------- [13:255 -1:255 29 0] [0x2 2 1 [4 0] [10 4]] (REQUEST)
r 0.311458828 _10_ MAC  --- 0 AODV 48 [0 ffffffff d 800] ------- [13:255 -1:255 29 0] [0x2 2 1 [4 0] [10 4]] (REQUEST)
s 0.314306217 _9_ MAC  --- 0 AODV 55 [0 ffffffff 9 800] ------- [9:255 -1:255 29 0] [0x2 2 1 [4 0] [10 4]] (REQUEST)
r 0.316898244 _10_ MAC  --- 0 AODV 48 [0 ffffffff 9 800] ------- [9:255 -1:255 29 0] [0x2 2 1 [4 0] [10 4]] (REQUEST)
r 0.316898255 _13_ MAC  --- 0 AODV 48 [0 ffffffff 9 800] ------- [9:255 -1:255 29 0] [0x2 2 1 [4 0] [10 4]] (REQUEST)
s 0.323006012 _15_ MAC  --- 0 AODV 55 [0 ffffffff f 800] ------- [15:255 -1:255 28 0] [0x2 3 1 [4 0] [10 4]] (REQUEST)
r 0.325598043 _4_ MAC  --- 0 AODV 48 [0 ffffffff f 800] ------- [15:255 -1:255 28 0] [0x2 3 1 [4 0] [10 4]] (REQUEST)
r 0.325598047 _13_ MAC  --- 0 AODV 48 [0 ffffffff f 800] ------- [15:255 -1:255 28 0] [0x2 3 1 [4 0] [10 4]] (REQUEST)
r 0.325598060 _20_ MAC  --- 0 AODV 48 [0 ffffffff f 800] ------- [15:255 -1:255 28 0] [0x2 3 1 [4 0] [10 4]] (REQUEST)
s 0.328188043 _4_ MAC  --- 0 ARP 35 [0 ffffffff 4 806] ------- [REQUEST 4/4 0/15]
r 0.330140073 _20_ MAC  --- 0 ARP 28 [0 ffffffff 4 806] ------- [REQUEST 4/4 0/15]
r 0.330140073 _15_ MAC  --- 0 ARP 28 [0 ffffffff 4 806] ------- [REQUEST 4/4 0/15]
s 0.332065073 _15_ MAC  --- 0 ARP 35 [0 4 f 806] ------- [REPLY 15/15 4/4]
s 0.333569103 _4_ MAC  --- 0 ACK 5 [0 f 4 0] 
r 0.333921134 _15_ MAC  --- 0 ACK 5 [0 f 4 0] 
r 0.334561103 _4_ MAC  --- 0 ARP 28 [0 4 f 806] ------- [REPLY 15/15 4/4]
s 0.335206103 _4_ MAC  --- 0 AODV 51 [0 f 4 800] ------- [4:255 10:255 30 15] [0x4 1 [4 4] 10.000000] (REPLY)
s 0.337222134 _15_ MAC  --- 0 ACK 5 [0 4 f 0] 
r 0.337574164 _4_ MAC  --- 0 ACK 5 [0 4 f 0] 
r 0.338214134 _15_ MAC  --- 0 AODV 44 [0 f 4 800] ------- [4:255 10:255 30 15] [0x4 1 [4 4] 10.000000] (REPLY)
s 0.339204134 _15_ MAC  --- 0 ARP 35 [0 ffffffff f 806] ------- [REQUEST 15/15 0/13]
r 0.341156164 _4_ MAC  --- 0 ARP 28 [0 ffffffff f 806] ------- [REQUEST 15/15 0/13]
r 0.341156168 _13_ MAC  --- 0 ARP 28 [0 ffffffff f 806] ------- [REQUEST 15/15 0/13]
r 0.341156181 _20_ MAC  --- 0 ARP 28 [0 ffffffff f 806] ------- [REQUEST 15/15 0/13]
s 0.342441168 _13_ MAC  --- 0 ARP 35 [0 f d 806] ------- [REPLY 13/13 15/15]
s 0.343945203 _15_ MAC  --- 0 ACK 5 [0 d f 0] 
r 0.344297238 _13_ MAC  --- 0 ACK 5 [0 d f 0] 
r 0.344937203 _15_ MAC  --- 0 ARP 28 [0 f d 806] ------- [REPLY 13/13 15/15]
s 0.346554301 _20_ MAC  --- 0 AODV 55 [0 ffffffff 14 800] ------- [20:255 -1:255 27 0] [0x2 4 1 [4 0] [10 4]] (REQUEST)
r 0.349146331 _4_ MAC  --- 0 AODV 48 [0 ffffffff 14 800] ------- [20:255 -1:255 27 0] [0x2 4 1 [4 0] [10 4]] (REQUEST)
r 0.349146348 _21_ MAC  --- 0 AODV 48 [0 ffffffff 14 800] ------- [20:255 -1:255 27 0] [0x2 4 1 [4 0] [10 4]] (REQUEST)
r 0.349146349 _15_ MAC  --- 0 AODV 48 [0 ffffffff 14 800] ------- [20:255 -1:255 27 0] [0x2 4 1 [4 0] [10 4]] (REQUEST)
r 0.349146350 _19_ MAC  --- 0 AODV 48 [0 ffffffff 14 800] ------- [20:255 -1:255 27 0] [0x2 4 1 [4 0] [10 4]] (REQUEST)
s 0.351470203 _15_ MAC  --- 0 AODV 51 [0 d f 800] ------- [4:255 10:255 29 13] [0x4 2 [4 4] 10.000000] (REPLY)
s 0.353486238 _13_ MAC  --- 0 ACK 5 [0 f d 0] 
s 0.353495173 _21_ MAC  --- 0 AODV 55 [0 ffffffff 15 800] ------- [21:255 -1:255 26 0] [0x2 5 1 [4 0] [10 4]] (REQUEST)
r 0.353838272 _15_ MAC  --- 0 ACK 5 [0 f d 0] 
r 0.354478238 _13_ MAC  --- 0 AODV 44 [0 d f 800] ------- [4:255 10:255 29 13] [0x4 2 [4 4] 10.000000] (REPLY)
r 0.356087201 _24_ MAC  --- 0 AODV 48 [0 ffffffff 15 800] ------- [21:255 -1:255 26 0] [0x2 5 1 [4 0] [10 4]] (REQUEST)
r 0.356087220 _20_ MAC  --- 0 AODV 48 [0 ffffffff 15 800] ------- [21:255 -1:255 26 0] [0x2 5 1 [4 0] [10 4]] (REQUEST)
s 0.356108238 _13_ MAC  --- 0 ARP 35 [0 ffffffff d 806] ------- [REQUEST 13/13 0/10]
s 0.357550125 _19_ MAC  --- 0 AODV 55 [0 ffffffff 13 800] ------- [19:255 -1:255 26 0] [0x2 5 1 [4 0] [10 4]] (REQUEST)
r 0.358060272 _15_ MAC  --- 0 ARP 28 [0 ffffffff d 806] ------- [REQUEST 13/13 0/10]
r 0.358060277 _9_ MAC  --- 0 ARP 28 [0 ffffffff d 806] ------- [REQUEST 13/13 0/10]
r 0.358060283 _10_ MAC  --- 0 ARP 28 [0 ffffffff d 806] ------- [REQUEST 13/13 0/10]
s 0.359345283 _10_ MAC  --- 0 ARP 35 [0 d a 806] ------- [REPLY 10/10 13/13]
r 0.360142146 _23_ MAC  --- 0 AODV 48 [0 ffffffff 13 800] ------- [19:255 -1:255 26 0] [0x2 5 1 [4 0] [10 4]] (REQUEST)
r 0.360142151 _12_ MAC  --- 0 AODV 48 [0 ffffffff 13 800] ------- [19:255 -1:255 26 0] [0x2 5 1 [4 0] [10 4]] (REQUEST)
r 0.360142160 _22_ MAC  --- 0 AODV 48 [0 ffffffff 13 800] ------- [19:255 -1:255 26 0] [0x2 5 1 [4 0] [10 4]] (REQUEST)
r 0.360142162 _2_ MAC  --- 0 AODV 48 [0 ffffffff 13 800] ------- [19:255 -1:255 26 0] [0x2 5 1 [4 0] [10 4]] (REQUEST)
r 0.360142171 _7_ MAC  --- 0 AODV 48 [0 ffffffff 13 800] ------- [19:255 -1:255 26 0] [0x2 5 1 [4 0] [10 4]] (REQUEST)
r 0.360142173 _8_ MAC  --- 0 AODV 48 [0 ffffffff 13 800] ------- [19:255 -1:255 26 0] [0x2 5 1 [4 0] [10 4]] (REQUEST)
r 0.360142174 _20_ MAC  --- 0 AODV 48 [0 ffffffff 13 800] ------- [19:255 -1:255 26 0] [0x2 5 1 [4 0] [10 4]] (REQUEST)
s 0.360563574 _24_ MAC  --- 0 AODV 55 [0 ffffffff 18 800] ------- [24:255 -1:255 25 0] [0x2 6 1 [4 0] [10 4]] (REQUEST)
s 0.360849328 _13_ MAC  --- 0 ACK 5 [0 a d 0] 
r 0.361201373 _10_ MAC  --- 0 ACK 5 [0 a d 0] 
s 0.361567901 _7_ MAC  --- 0 AODV 55 [0 ffffffff 7 800] ------- [7:255 -1:255 25 0] [0x2 6 1 [4 0] [10 4]] (REQUEST)
r 0.361841328 _13_ MAC  --- 0 ARP 28 [0 d a 806] ------- [REPLY 10/10 13/13]
s 0.362486328 _13_ MAC  --- 0 AODV 51 [0 a d 800] ------- [4:255 10:255 28 10] [0x4 3 [4 4] 10.000000] (REPLY)
r 0.363155603 _21_ MAC  --- 0 AODV 48 [0 ffffffff 18 800] ------- [24:255 -1:255 25 0] [0x2 6 1 [4 0] [10 4]] (REQUEST)
r 0.363155604 _6_ MAC  --- 0 AODV 48 [0 ffffffff 18 800] ------- [24:255 -1:255 25 0] [0x2 6 1 [4 0] [10 4]] (REQUEST)
r 0.364159925 _8_ MAC  --- 0 AODV 48 [0 ffffffff 7 800] ------- [7:255 -1:255 25 0] [0x2 6 1 [4 0] [10 4]] (REQUEST)
r 0.364159926 _12_ MAC  --- 0 AODV 48 [0 ffffffff 7 800] ------- [7:255 -1:255 25 0] [0x2 6 1 [4 0] [10 4]] (REQUEST)
r 0.364159927 _2_ MAC  --- 0 AODV 48 [0 ffffffff 7 800] ------- [7:255 -1:255 25 0] [0x2 6 1 [4 0] [10 4]] (REQUEST)
r 0.364159930 _5_ MAC  --- 0 AODV 48 [0 ffffffff 7 800] ------- [7:255 -1:255 25 0] [0x2 6 1 [4 0] [10 4]] (REQUEST)
r 0.364159934 _22_ MAC  --- 0 AODV 48 [0 ffffffff 7 800] ------- [7:255 -1:255 25 0] [0x2 6 1 [4 0] [10 4]] (REQUEST)
r 0.364159934 _14_ MAC  --- 0 AODV 48 [0 ffffffff 7 800] ------- [7:255 -1:255 25 0] [0x2 6 1 [4 0] [10 4]] (REQUEST)
r 0.364159939 _11_ MAC  --- 0 AODV 48 [0 ffffffff 7 800] ------- [7:255 -1:255 25 0] [0x2 6 1 [4 0] [10 4]] (REQUEST)
r 0.364159940 _23_ MAC  --- 0 AODV 48 [0 ffffffff 7 800] ------- [7:255 -1:255 25 0] [0x2 6 1 [4 0] [10 4]] (REQUEST)
r 0.364159944 _16_ MAC  --- 0 AODV 48 [0 ffffffff 7 800] ------- [7:255 -1:255 25 0] [0x2 6 1 [4 0] [10 4]] (REQUEST)
r 0.364159946 _19_ MAC  --- 0 AODV 48 [0 ffffffff 7 800] ------- [7:255 -1:255 25 0] [0x2 6 1 [4 0] [10 4]] (REQUEST)
s 0.364169204 _2_ MAC  --- 0 AODV 55 [0 ffffffff 2 800] ------- [2:255 -1:255 25 0] [0x2 6 1 [4 0] [10 4]] (REQUEST)
s 0.364502373 _10_ MAC  --- 0 ACK 5 [0 d a 0] 
r 0.364854418 _13_ MAC  --- 0 ACK 5 [0 d a 0] 
r 0.365494373 _10_ MAC  --- 0 AODV 44 [0 a d 800] ------- [4:255 10:255 28 10] [0x4 3 [4 4] 10.000000] (REPLY)
s 0.366184373 _10_ MAC  --- 5 tcp 47 [0 d a 800] ------- [10:0 4:0 30 13] [0 0] 0 0
r 0.366761224 _23_ MAC  --- 0 AODV 48 [0 ffffffff 2 800] ------- [2:255 -1:255 25 0] [0x2 6 1 [4 0] [10 4]] (REQUEST)
r 0.366761228 _14_ MAC  --- 0 AODV 48 [0 ffffffff 2 800] ------- [2:255 -1:255 25 0] [0x2 6 1 [4 0] [10 4]] (REQUEST)
r 0.366761230 _7_ MAC  --- 0 AODV 48 [0 ffffffff 2 800] ------- [2:255 -1:255 25 0] [0x2 6 1 [4 0] [10 4]] (REQUEST)