s 0.001920000 _0_ MAC  --- 0 CM7 8 [0 ffffffff 0 0] 
r 0.002368031 _2_ MAC  --- 0 CM7 8 [0 ffffffff 0 0] 
r 0.002368038 _1_ MAC  --- 0 CM7 8 [0 ffffffff 0 0] 
s 0.143360000 _0_ MAC  --- 0 CM7 8 [0 ffffffff 0 0] 
s 0.282880000 _0_ MAC  --- 0 CM7 8 [0 ffffffff 0 0] 
s 0.421952000 _0_ MAC  --- 0 BCN 12 [0 ffffffff 0 0] 
s 0.501920000 _1_ MAC  --- 0 CM7 8 [0 ffffffff 1 0] 
r 0.502368035 _4_ MAC  --- 0 CM7 8 [0 ffffffff 1 0] 
r 0.502368038 _0_ MAC  --- 0 CM7 8 [0 ffffffff 1 0] 
r 0.502368039 _3_ MAC  --- 0 CM7 8 [0 ffffffff 1 0] 
r 0.502368043 _2_ MAC  --- 0 CM7 8 [0 ffffffff 1 0] 
s 0.544832000 _0_ MAC  --- 0 BCN 12 [0 ffffffff 0 0] 
s 0.667712000 _0_ MAC  --- 0 BCN 12 [0 ffffffff 0 0] 
s 0.764640000 _1_ MAC  --- 0 CM7 8 [0 ffffffff 1 0] 
s 0.790592000 _0_ MAC  --- 0 BCN 12 [0 ffffffff 0 0] 
s 0.913472000 _0_ MAC  --- 0 BCN 12 [0 ffffffff 0 0] 
s 1.028000000 _1_ MAC  --- 0 CM7 8 [0 ffffffff 1 0] 
s 1.036352000 _0_ MAC  --- 0 BCN 12 [0 ffffffff 0 0] 
s 1.159232000 _0_ MAC  --- 0 BCN 12 [0 ffffffff 0 0] 
s 1.282112000 _0_ MAC  --- 0 BCN 12 [0 ffffffff 0 0] 
s 1.291040000 _1_ MAC  --- 0 CM1 17 [0 0 1 0] 
r 1.291776038 _0_ MAC  --- 0 CM1 17 [0 0 1 0] 
s 1.292032000 _0_ MAC  --- 0 ACK 5 [0 1 0 0] 
r 1.292384038 _1_ MAC  --- 0 ACK 5 [0 1 0 0] 
s 1.404992000 _0_ MAC  --- 0 BCN 20 [0 ffffffff 0 0] 
s 1.501280000 _2_ MAC  --- 0 CM7 8 [0 ffffffff 2 0] 
r 1.501728031 _0_ MAC  --- 0 CM7 8 [0 ffffffff 2 0] 
r 1.501728033 _4_ MAC  --- 0 CM7 8 [0 ffffffff 2 0] 
r 1.501728034 _5_ MAC  --- 0 CM7 8 [0 ffffffff 2 0] 
s 1.527872000 _0_ MAC  --- 0 BCN 20 [0 ffffffff 0 0] 
s 1.650752000 _0_ MAC  --- 0 BCN 20 [0 ffffffff 0 0] 
s 1.764320000 _2_ MAC  --- 0 CM7 8 [0 ffffffff 2 0] 
s 1.773632000 _0_ MAC  --- 0 BCN 20 [0 ffffffff 0 0] 
s 1.783904038 _1_ MAC  --- 0 CM4 16 [0 0 1 0] 
r 1.784608075 _0_ MAC  --- 0 CM4 16 [0 0 1 0] 
s 1.784832000 _0_ MAC  --- 0 ACK 5 [0 1 0 0] 
r 1.785184038 _1_ MAC  --- 0 ACK 5 [0 1 0 0] 
s 1.785472000 _0_ MAC  --- 0 CM2 25 [0 1 0 0] 
r 1.786464038 _1_ MAC  --- 0 CM2 25 [0 1 0 0] 
s 1.786656038 _1_ MAC  --- 0 ACK 5 [0 0 1 0] 
r 1.787008075 _0_ MAC  --- 0 ACK 5 [0 0 1 0] 
s 1.787840038 _1_ MAC  --- 0 BCN 12 [0 ffffffff 1 0] 
D 1.788416075 _0_ MAC  COO 0 BCN 12 [0 ffffffff 1 0] 
s 1.896512000 _0_ MAC  --- 0 BCN 12 [0 ffffffff 0 0] 
r 1.897088038 _1_ MAC  --- 0 BCN 12 [0 ffffffff 0 0] 
s 1.910720038 _1_ MAC  --- 0 BCN 12 [0 ffffffff 1 0] 
D 1.911296075 _0_ MAC  COO 0 BCN 12 [0 ffffffff 1 0] 
s 2.019392000 _0_ MAC  --- 0 BCN 12 [0 ffffffff 0 0] 
r 2.019968038 _1_ MAC  --- 0 BCN 12 [0 ffffffff 0 0] 
s 2.028000000 _2_ MAC  --- 0 CM7 8 [0 ffffffff 2 0] 
s 2.033600038 _1_ MAC  --- 0 BCN 12 [0 ffffffff 1 0] 
D 2.034176075 _0_ MAC  COO 0 BCN 12 [0 ffffffff 1 0] 
s 2.142272000 _0_ MAC  --- 0 BCN 12 [0 ffffffff 0 0] 
r 2.142848038 _1_ MAC  --- 0 BCN 12 [0 ffffffff 0 0] 
s 2.156480038 _1_ MAC  --- 0 BCN 12 [0 ffffffff 1 0] 
D 2.157056075 _0_ MAC  COO 0 BCN 12 [0 ffffffff 1 0] 
s 2.265152000 _0_ MAC  --- 0 BCN 12 [0 ffffffff 0 0] 
r 2.265728038 _1_ MAC  --- 0 BCN 12 [0 ffffffff 0 0] 
s 2.279360038 _1_ MAC  --- 0 BCN 12 [0 ffffffff 1 0] 
D 2.279936075 _0_ MAC  COO 0 BCN 12 [0 ffffffff 1 0] 
s 2.291680000 _2_ MAC  --- 0 CM1 17 [0 0 2 0] 
r 2.292416031 _0_ MAC  --- 0 CM1 17 [0 0 2 0] 
s 2.292672000 _0_ MAC  --- 0 ACK 5 [0 2 0 0] 
r 2.293024031 _2_ MAC  --- 0 ACK 5 [0 2 0 0] 
s 2.388032000 _0_ MAC  --- 0 BCN 20 [0 ffffffff 0 0] 
r 2.388864038 _1_ MAC  --- 0 BCN 20 [0 ffffffff 0 0] 
s 2.402240038 _1_ MAC  --- 0 BCN 12 [0 ffffffff 1 0] 
D 2.402816075 _0_ MAC  COO 0 BCN 12 [0 ffffffff 1 0] 
s 2.501280000 _3_ MAC  --- 0 CM7 8 [0 ffffffff 3 0] 
r 2.501728037 _6_ MAC  --- 0 CM7 8 [0 ffffffff 3 0] 
r 2.501728038 _7_ MAC  --- 0 CM7 8 [0 ffffffff 3 0] 
r 2.501728039 _1_ MAC  --- 0 CM7 8 [0 ffffffff 3 0] 
s 2.510912000 _0_ MAC  --- 0 BCN 20 [0 ffffffff 0 0] 
r 2.511744038 _1_ MAC  --- 0 BCN 20 [0 ffffffff 0 0] 
s 2.525120038 _1_ MAC  --- 0 BCN 12 [0 ffffffff 1 0] 
D 2.525696075 _0_ MAC  COO 0 BCN 12 [0 ffffffff 1 0] 
s 2.633792000 _0_ MAC  --- 0 BCN 20 [0 ffffffff 0 0] 
r 2.634624038 _1_ MAC  --- 0 BCN 20 [0 ffffffff 0 0] 
s 2.648000038 _1_ MAC  --- 0 BCN 12 [0 ffffffff 1 0] 
D 2.648576075 _0_ MAC  COO 0 BCN 12 [0 ffffffff 1 0] 
s 2.756672000 _0_ MAC  --- 0 BCN 20 [0 ffffffff 0 0] 
r 2.757504038 _1_ MAC  --- 0 BCN 20 [0 ffffffff 0 0] 
s 2.764640000 _3_ MAC  --- 0 CM7 8 [0 ffffffff 3 0] 
s 2.770880038 _1_ MAC  --- 0 BCN 12 [0 ffffffff 1 0] 
D 2.771456075 _0_ MAC  COO 0 BCN 12 [0 ffffffff 1 0] 
s 2.784544031 _2_ MAC  --- 0 CM4 16 [0 0 2 0] 
r 2.785248063 _0_ MAC  --- 0 CM4 16 [0 0 2 0] 
s 2.785472000 _0_ MAC  --- 0 ACK 5 [0 2 0 0] 
r 2.785824031 _2_ MAC  --- 0 ACK 5 [0 2 0 0] 
s 2.786112000 _0_ MAC  --- 0 CM2 25 [0 2 0 0] 
r 2.787104031 _2_ MAC  --- 0 CM2 25 [0 2 0 0] 
s 2.787296031 _2_ MAC  --- 0 ACK 5 [0 0 2 0] 
r 2.787648063 _0_ MAC  --- 0 ACK 5 [0 0 2 0] 
s 2.788480031 _2_ MAC  --- 0 BCN 12 [0 ffffffff 2 0] 
D 2.789056063 _0_ MAC  COO 0 BCN 12 [0 ffffffff 2 0] 
D 2.789056075 _1_ MAC  COO 0 BCN 12 [0 ffffffff 2 0] 
s 2.879552000 _0_ MAC  --- 0 BCN 12 [0 ffffffff 0 0] 
r 2.880128031 _2_ MAC  --- 0 BCN 12 [0 ffffffff 0 0] 
r 2.880128038 _1_ MAC  --- 0 BCN 12 [0 ffffffff 0 0] 
s 2.893760038 _1_ MAC  --- 0 BCN 12 [0 ffffffff 1 0] 
D 2.894336075 _0_ MAC  COO 0 BCN 12 [0 ffffffff 1 0] 
D 2.894336081 _2_ MAC  COO 0 BCN 12 [0 ffffffff 1 0] 
s 2.911360031 _2_ MAC  --- 0 BCN 12 [0 ffffffff 2 0] 
D 2.911936063 _0_ MAC  COO 0 BCN 12 [0 ffffffff 2 0] 
D 2.911936075 _1_ MAC  COO 0 BCN 12 [0 ffffffff 2 0] 
s 3.002432000 _0_ MAC  --- 0 BCN 12 [0 ffffffff 0 0] 
r 3.003008031 _2_ MAC  --- 0 BCN 12 [0 ffffffff 0 0] 
r 3.003008038 _1_ MAC  --- 0 BCN 12 [0 ffffffff 0 0] 
s 3.016640038 _1_ MAC  --- 0 BCN 12 [0 ffffffff 1 0] 
D 3.017216075 _0_ MAC  COO 0 BCN 12 [0 ffffffff 1 0] 
D 3.017216081 _2_ MAC  COO 0 BCN 12 [0 ffffffff 1 0] 
s 3.027040000 _3_ MAC  --- 0 CM7 8 [0 ffffffff 3 0] 
s 3.034240031 _2_ MAC  --- 0 BCN 12 [0 ffffffff 2 0] 
D 3.034816063 _0_ MAC  COO 0 BCN 12 [0 ffffffff 2 0] 
D 3.034816075 _1_ MAC  COO 0 BCN 12 [0 ffffffff 2 0] 
s 3.125312000 _0_ MAC  --- 0 BCN 12 [0 ffffffff 0 0] 
r 3.125888031 _2_ MAC  --- 0 BCN 12 [0 ffffffff 0 0] 
r 3.125888038 _1_ MAC  --- 0 BCN 12 [0 ffffffff 0 0] 
s 3.139520038 _1_ MAC  --- 0 BCN 12 [0 ffffffff 1 0] 
D 3.140096075 _0_ MAC  COO 0 BCN 12 [0 ffffffff 1 0] 
D 3.140096081 _2_ MAC  COO 0 BCN 12 [0 ffffffff 1 0] 
s 3.157120031 _2_ MAC  --- 0 BCN 12 [0 ffffffff 2 0] 
D 3.157696063 _0_ MAC  COO 0 BCN 12 [0 ffffffff 2 0] 
D 3.157696075 _1_ MAC  COO 0 BCN 12 [0 ffffffff 2 0] 
s 3.248192000 _0_ MAC  --- 0 BCN 12 [0 ffffffff 0 0] 
r 3.248768031 _2_ MAC  --- 0 BCN 12 [0 ffffffff 0 0] 
r 3.248768038 _1_ MAC  --- 0 BCN 12 [0 ffffffff 0 0] 
s 3.262400038 _1_ MAC  --- 0 BCN 12 [0 ffffffff 1 0] 
D 3.262976075 _0_ MAC  COO 0 BCN 12 [0 ffffffff 1 0] 
D 3.262976081 _2_ MAC  COO 0 BCN 12 [0 ffffffff 1 0] 
s 3.280000031 _2_ MAC  --- 0 BCN 12 [0 ffffffff 2 0] 
D 3.280576063 _0_ MAC  COO 0 BCN 12 [0 ffffffff 2 0] 
D 3.280576075 _1_ MAC  COO 0 BCN 12 [0 ffffffff 2 0] 
s 3.289120000 _3_ MAC  --- 0 CM1 17 [0 1 3 0] 
r 3.289856039 _1_ MAC  --- 0 CM1 17 [0 1 3 0] 
s 3.290240038 _1_ MAC  --- 0 ACK 5 [0 3 1 0] 
r 3.290592077 _3_ MAC  --- 0 ACK 5 [0 3 1 0] 
s 3.371072000 _0_ MAC  --- 0 BCN 12 [0 ffffffff 0 0] 
r 3.371648031 _2_ MAC  --- 0 BCN 12 [0 ffffffff 0 0] 
r 3.371648038 _1_ MAC  --- 0 BCN 12 [0 ffffffff 0 0] 
s 3.385280038 _1_ MAC  --- 0 BCN 20 [0 ffffffff 1 0] 
D 3.386112075 _0_ MAC  COO 0 BCN 20 [0 ffffffff 1 0] 
D 3.386112081 _2_ MAC  COO 0 BCN 20 [0 ffffffff 1 0] 
s 3.402880031 _2_ MAC  --- 0 BCN 12 [0 ffffffff 2 0] 
D 3.403456063 _0_ MAC  COO 0 BCN 12 [0 ffffffff 2 0] 
D 3.403456075 _1_ MAC  COO 0 BCN 12 [0 ffffffff 2 0] 
s 3.493952000 _0_ MAC  --- 0 BCN 12 [0 ffffffff 0 0] 
r 3.494528031 _2_ MAC  --- 0 BCN 12 [0 ffffffff 0 0] 
r 3.494528038 _1_ MAC  --- 0 BCN 12 [0 ffffffff 0 0] 
s 3.502560000 _4_ MAC  --- 0 CM7 8 [0 ffffffff 4 0] 
r 3.503008033 _2_ MAC  --- 0 CM7 8 [0 ffffffff 4 0] 
r 3.503008035 _1_ MAC  --- 0 CM7 8 [0 ffffffff 4 0] 
r 3.503008037 _5_ MAC  --- 0 CM7 8 [0 ffffffff 4 0] 
r 3.503008039 _9_ MAC  --- 0 CM7 8 [0 ffffffff 4 0] 
r 3.503008040 _8_ MAC  --- 0 CM7 8 [0 ffffffff 4 0] 
s 3.508160038 _1_ MAC  --- 0 BCN 20 [0 ffffffff 1 0] 
D 3.508992075 _0_ MAC  COO 0 BCN 20 [0 ffffffff 1 0] 
D 3.508992081 _2_ MAC  COO 0 BCN 20 [0 ffffffff 1 0] 
s 3.525760031 _2_ MAC  --- 0 BCN 12 [0 ffffffff 2 0] 
D 3.526336063 _0_ MAC  COO 0 BCN 12 [0 ffffffff 2 0] 
D 3.526336075 _1_ MAC  COO 0 BCN 12 [0 ffffffff 2 0] 
s 3.616832000 _0_ MAC  --- 0 BCN 12 [0 ffffffff 0 0] 
r 3.617408031 _2_ MAC  --- 0 BCN 12 [0 ffffffff 0 0] 
r 3.617408038 _1_ MAC  --- 0 BCN 12 [0 ffffffff 0 0] 
s 3.631040038 _1_ MAC  --- 0 BCN 20 [0 ffffffff 1 0] 
D 3.631872075 _0_ MAC  COO 0 BCN 20 [0 ffffffff 1 0] 
D 3.631872081 _2_ MAC  COO 0 BCN 20 [0 ffffffff 1 0] 
s 3.648640031 _2_ MAC  --- 0 BCN 12 [0 ffffffff 2 0] 
D 3.649216063 _0_ MAC  COO 0 BCN 12 [0 ffffffff 2 0] 
D 3.649216075 _1_ MAC  COO 0 BCN 12 [0 ffffffff 2 0] 
s 3.739712000 _0_ MAC  --- 0 BCN 12 [0 ffffffff 0 0] 
r 3.740288031 _2_ MAC  --- 0 BCN 12 [0 ffffffff 0 0] 
r 3.740288038 _1_ MAC  --- 0 BCN 12 [0 ffffffff 0 0] 
s 3.753920038 _1_ MAC  --- 0 BCN 20 [0 ffffffff 1 0] 
D 3.754752075 _0_ MAC  COO 0 BCN 20 [0 ffffffff 1 0] 
D 3.754752081 _2_ MAC  COO 0 BCN 20 [0 ffffffff 1 0] 
s 3.764960000 _4_ MAC  --- 0 CM7 8 [0 ffffffff 4 0] 
s 3.771520031 _2_ MAC  --- 0 BCN 12 [0 ffffffff 2 0] 
D 3.772096063 _0_ MAC  COO 0 BCN 12 [0 ffffffff 2 0] 
D 3.772096075 _1_ MAC  COO 0 BCN 12 [0 ffffffff 2 0] 
s 3.782112077 _3_ MAC  --- 0 CM4 16 [0 1 3 0] 
r 3.782816116 _1_ MAC  --- 0 CM4 16 [0 1 3 0] 
s 3.783040038 _1_ MAC  --- 0 ACK 5 [0 3 1 0] 
r 3.783392077 _3_ MAC  --- 0 ACK 5 [0 3 1 0] 
s 3.783680038 _1_ MAC  --- 0 CM2 25 [0 3 1 0] 
r 3.784672077 _3_ MAC  --- 0 CM2 25 [0 3 1 0] 
s 3.784864077 _3_ MAC  --- 0 ACK 5 [0 1 3 0] 
r 3.785216116 _1_ MAC  --- 0 ACK 5 [0 1 3 0] 
s 3.786048077 _3_ MAC  --- 0 BCN 12 [0 ffffffff 3 0] 
D 3.786624116 _1_ MAC  COO 0 BCN 12 [0 ffffffff 3 0] 
s 3.862592000 _0_ MAC  --- 0 BCN 12 [0 ffffffff 0 0] 
r 3.863168031 _2_ MAC  --- 0 BCN 12 [0 ffffffff 0 0] 
r 3.863168038 _1_ MAC  --- 0 BCN 12 [0 ffffffff 0 0] 
s 3.876800038 _1_ MAC  --- 0 BCN 12 [0 ffffffff 1 0] 
D 3.877376075 _0_ MAC  COO 0 BCN 12 [0 ffffffff 1 0] 
r 3.877376077 _3_ MAC  --- 0 BCN 12 [0 ffffffff 1 0] 
D 3.877376081 _2_ MAC  COO 0 BCN 12 [0 ffffffff 1 0] 
s 3.894400031 _2_ MAC  --- 0 BCN 12 [0 ffffffff 2 0] 
D 3.894976063 _0_ MAC  COO 0 BCN 12 [0 ffffffff 2 0] 
D 3.894976075 _1_ MAC  COO 0 BCN 12 [0 ffffffff 2 0] 
s 3.908928077 _3_ MAC  --- 0 BCN 12 [0 ffffffff 3 0] 
D 3.909504116 _1_ MAC  COO 0 BCN 12 [0 ffffffff 3 0] 
s 3.985472000 _0_ MAC  --- 0 BCN 12 [0 ffffffff 0 0] 
r 3.986048031 _2_ MAC  --- 0 BCN 12 [0 ffffffff 0 0] 
r 3.986048038 _1_ MAC  --- 0 BCN 12 [0 ffffffff 0 0] 
s 3.999680038 _1_ MAC  --- 0 BCN 12 [0 ffffffff 1 0] 
D 4.000256075 _0_ MAC  COO 0 BCN 12 [0 ffffffff 1 0] 
r 4.000256077 _3_ MAC  --- 0 BCN 12 [0 ffffffff 1 0] 
D 4.000256081 _2_ MAC  COO 0 BCN 12 [0 ffffffff 1 0] 
s 4.017280031 _2_ MAC  --- 0 BCN 12 [0 ffffffff 2 0] 
D 4.017856063 _0_ MAC  COO 0 BCN 12 [0 ffffffff 2 0] 
D 4.017856075 _1_ MAC  COO 0 BCN 12 [0 ffffffff 2 0] 
s 4.029280000 _4_ MAC  --- 0 CM7 8 [0 ffffffff 4 0] 
s 4.031808077 _3_ MAC  --- 0 BCN 12 [0 ffffffff 3 0] 
D 4.032384116 _1_ MAC  COO 0 BCN 12 [0 ffffffff 3 0] 
s 4.108352000 _0_ MAC  --- 0 BCN 12 [0 ffffffff 0 0] 
r 4.108928031 _2_ MAC  --- 0 BCN 12 [0 ffffffff 0 0] 
r 4.108928038 _1_ MAC  --- 0 BCN 12 [0 ffffffff 0 0] 
s 4.122560038 _1_ MAC  --- 0 BCN 12 [0 ffffffff 1 0] 
D 4.123136075 _0_ MAC  COO 0 BCN 12 [0 ffffffff 1 0] 
r 4.123136077 _3_ MAC  --- 0 BCN 12 [0 ffffffff 1 0] 
D 4.123136081 _2_ MAC  COO 0 BCN 12 [0 ffffffff 1 0] 
s 4.140160031 _2_ MAC  --- 0 BCN 12 [0 ffffffff 2 0] 
D 4.140736063 _0_ MAC  COO 0 BCN 12 [0 ffffffff 2 0] 
D 4.140736075 _1_ MAC  COO 0 BCN 12 [0 ffffffff 2 0] 
s 4.154688077 _3_ MAC  --- 0 BCN 12 [0 ffffffff 3 0] 
D 4.155264116 _1_ MAC  COO 0 BCN 12 [0 ffffffff 3 0] 
s 4.231232000 _0_ MAC  --- 0 BCN 12 [0 ffffffff 0 0] 
r 4.231808031 _2_ MAC  --- 0 BCN 12 [0 ffffffff 0 0] 
r 4.231808038 _1_ MAC  --- 0 BCN 12 [0 ffffffff 0 0] 
s 4.245440038 _1_ MAC  --- 0 BCN 12 [0 ffffffff 1 0] 
D 4.246016075 _0_ MAC  COO 0 BCN 12 [0 ffffffff 1 0] 
r 4.246016077 _3_ MAC  --- 0 BCN 12 [0 ffffffff 1 0] 
D 4.246016081 _2_ MAC  COO 0 BCN 12 [0 ffffffff 1 0] 
s 4.263040031 _2_ MAC  --- 0 BCN 12 [0 ffffffff 2 0] 
D 4.263616063 _0_ MAC  COO 0 BCN 12 [0 ffffffff 2 0] 
D 4.263616075 _1_ MAC  COO 0 BCN 12 [0 ffffffff 2 0] 
s 4.277568077 _3_ MAC  --- 0 BCN 12 [0 ffffffff 3 0] 
D 4.278144116 _1_ MAC  COO 0 BCN 12 [0 ffffffff 3 0] 
s 4.292000000 _4_ MAC  --- 0 CM1 17 [0 1 4 0] 
r 4.292736035 _1_ MAC  --- 0 CM1 17 [0 1 4 0] 
s 4.293120038 _1_ MAC  --- 0 ACK 5 [0 4 1 0] 
r 4.293472073 _4_ MAC  --- 0 ACK 5 [0 4 1 0] 
s 4.354112000 _0_ MAC  --- 0 BCN 12 [0 ffffffff 0 0] 
r 4.354688031 _2_ MAC  --- 0 BCN 12 [0 ffffffff 0 0] 
r 4.354688038 _1_ MAC  --- 0 BCN 12 [0 ffffffff 0 0] 
s 4.368320038 _1_ MAC  --- 0 BCN 20 [0 ffffffff 1 0] 
D 4.369152075 _0_ MAC  COO 0 BCN 20 [0 ffffffff 1 0] 
r 4.369152077 _3_ MAC  --- 0 BCN 20 [0 ffffffff 1 0] 
D 4.369152081 _2_ MAC  COO 0 BCN 20 [0 ffffffff 1 0] 
s 4.385920031 _2_ MAC  --- 0 BCN 12 [0 ffffffff 2 0] 
D 4.386496063 _0_ MAC  COO 0 BCN 12 [0 ffffffff 2 0] 
D 4.386496075 _1_ MAC  COO 0 BCN 12 [0 ffffffff 2 0] 
s 4.400448077 _3_ MAC  --- 0 BCN 12 [0 ffffffff 3 0] 
D 4.401024116 _1_ MAC  COO 0 BCN 12 [0 ffffffff 3 0] 
s 4.476992000 _0_ MAC  --- 0 BCN 12 [0 ffffffff 0 0] 
r 4.477568031 _2_ MAC  --- 0 BCN 12 [0 ffffffff 0 0] 
r 4.477568038 _1_ MAC  --- 0 BCN 12 [0 ffffffff 0 0] 
s 4.491200038 _1_ MAC  --- 0 BCN 20 [0 ffffffff 1 0] 
D 4.492032075 _0_ MAC  COO 0 BCN 20 [0 ffffffff 1 0] 
r 4.492032077 _3_ MAC  --- 0 BCN 20 [0 ffffffff 1 0] 
D 4.492032081 _2_ MAC  COO 0 BCN 20 [0 ffffffff 1 0] 
s 4.502560000 _5_ MAC  --- 0 CM7 8 [0 ffffffff 5 0] 
r 4.503008034 _2_ MAC  --- 0 CM7 8 [0 ffffffff 5 0] 
r 4.503008036 _10_ MAC  --- 0 CM7 8 [0 ffffffff 5 0] 
r 4.503008037 _9_ MAC  --- 0 CM7 8 [0 ffffffff 5 0] 
s 4.508800031 _2_ MAC  --- 0 BCN 12 [0 ffffffff 2 0] 
D 4.509376063 _0_ MAC  COO 0 BCN 12 [0 ffffffff 2 0] 
D 4.509376075 _1_ MAC  COO 0 BCN 12 [0 ffffffff 2 0] 
s 4.523328077 _3_ MAC  --- 0 BCN 12 [0 ffffffff 3 0] 
D 4.523904116 _1_ MAC  COO 0 BCN 12 [0 ffffffff 3 0] 
s 4.599872000 _0_ MAC  --- 0 BCN 12 [0 ffffffff 0 0] 
r 4.600448031 _2_ MAC  --- 0 BCN 12 [0 ffffffff 0 0] 
r 4.600448038 _1_ MAC  --- 0 BCN 12 [0 ffffffff 0 0] 
s 4.614080038 _1_ MAC  --- 0 BCN 20 [0 ffffffff 1 0] 
D 4.614912075 _0_ MAC  COO 0 BCN 20 [0 ffffffff 1 0] 
r 4.614912077 _3_ MAC  --- 0 BCN 20 [0 ffffffff 1 0] 
D 4.614912081 _2_ MAC  COO 0 BCN 20 [0 ffffffff 1 0] 
s 4.631680031 _2_ MAC  --- 0 BCN 12 [0 ffffffff 2 0] 
D 4.632256063 _0_ MAC  COO 0 BCN 12 [0 ffffffff 2 0] 
D 4.632256075 _1_ MAC  COO 0 BCN 12 [0 ffffffff 2 0] 
s 4.646208077 _3_ MAC  --- 0 BCN 12 [0 ffffffff 3 0] 
D 4.646784116 _1_ MAC  COO 0 BCN 12 [0 ffffffff 3 0] 
s 4.722752000 _0_ MAC  --- 0 BCN 12 [0 ffffffff 0 0] 
r 4.723328031 _2_ MAC  --- 0 BCN 12 [0 ffffffff 0 0] 
r 4.723328038 _1_ MAC  --- 0 BCN 12 [0 ffffffff 0 0] 
s 4.736960038 _1_ MAC  --- 0 BCN 20 [0 ffffffff 1 0] 
D 4.737792075 _0_ MAC  COO 0 BCN 20 [0 ffffffff 1 0] 
r 4.737792077 _3_ MAC  --- 0 BCN 20 [0 ffffffff 1 0] 
D 4.737792081 _2_ MAC  COO 0 BCN 20 [0 ffffffff 1 0] 
s 4.754560031 _2_ MAC  --- 0 BCN 12 [0 ffffffff 2 0] 
D 4.755136063 _0_ MAC  COO 0 BCN 12 [0 ffffffff 2 0] 
D 4.755136075 _1_ MAC  COO 0 BCN 12 [0 ffffffff 2 0] 
s 4.764960000 _5_ MAC  --- 0 CM7 8 [0 ffffffff 5 0] 
s 4.769088077 _3_ MAC  --- 0 BCN 12 [0 ffffffff 3 0] 
D 4.769664116 _1_ MAC  COO 0 BCN 12 [0 ffffffff 3 0] 
s 4.784992073 _4_ MAC  --- 0 CM4 16 [0 1 4 0] 
r 4.785696109 _1_ MAC  --- 0 CM4 16 [0 1 4 0] 
s 4.785920038 _1_ MAC  --- 0 ACK 5 [0 4 1 0] 
r 4.786272073 _4_ MAC  --- 0 ACK 5 [0 4 1 0] 
s 4.786560038 _1_ MAC  --- 0 CM2 25 [0 4 1 0] 
r 4.787552073 _4_ MAC  --- 0 CM2 25 [0 4 1 0] 
s 4.787744073 _4_ MAC  --- 0 ACK 5 [0 1 4 0] 
r 4.788096109 _1_ MAC  --- 0 ACK 5 [0 1 4 0] 
s 4.788928073 _4_ MAC  --- 0 BCN 12 [0 ffffffff 4 0] 
D 4.789504106 _2_ MAC  COO 0 BCN 12 [0 ffffffff 4 0] 
D 4.789504109 _1_ MAC  COO 0 BCN 12 [0 ffffffff 4 0] 
s 4.845632000 _0_ MAC  --- 0 BCN 12 [0 ffffffff 0 0] 
r 4.846208031 _2_ MAC  --- 0 BCN 12 [0 ffffffff 0 0] 
r 4.846208038 _1_ MAC  --- 0 BCN 12 [0 ffffffff 0 0] 
s 4.859840038 _1_ MAC  --- 0 BCN 12 [0 ffffffff 1 0] 
r 4.860416073 _4_ MAC  --- 0 BCN 12 [0 ffffffff 1 0] 
D 4.860416075 _0_ MAC  COO 0 BCN 12 [0 ffffffff 1 0] 
r 4.860416077 _3_ MAC  --- 0 BCN 12 [0 ffffffff 1 0] 
D 4.860416081 _2_ MAC  COO 0 BCN 12 [0 ffffffff 1 0] 
s 4.877440031 _2_ MAC  --- 0 BCN 12 [0 ffffffff 2 0] 
D 4.878016063 _0_ MAC  COO 0 BCN 12 [0 ffffffff 2 0] 
D 4.878016065 _4_ MAC  COO 0 BCN 12 [0 ffffffff 2 0] 
D 4.878016075 _1_ MAC  COO 0 BCN 12 [0 ffffffff 2 0] 
s 4.891968077 _3_ MAC  --- 0 BCN 12 [0 ffffffff 3 0] 
D 4.892544116 _1_ MAC  COO 0 BCN 12 [0 ffffffff 3 0] 
s 4.911808073 _4_ MAC  --- 0 BCN 12 [0 ffffffff 4 0] 
D 4.912384106 _2_ MAC  COO 0 BCN 12 [0 ffffffff 4 0] 
D 4.912384109 _1_ MAC  COO 0 BCN 12 [0 ffffffff 4 0] 
s 4.968512000 _0_ MAC  --- 0 BCN 12 [0 ffffffff 0 0] 
r 4.969088031 _2_ MAC  --- 0 BCN 12 [0 ffffffff 0 0] 
r 4.969088038 _1_ MAC  --- 0 BCN 12 [0 ffffffff 0 0] 
s 4.982720038 _1_ MAC  --- 0 BCN 12 [0 ffffffff 1 0] 
r 4.983296073 _4_ MAC  --- 0 BCN 12 [0 ffffffff 1 0] 
D 4.983296075 _0_ MAC  COO 0 BCN 12 [0 ffffffff 1 0] 
r 4.983296077 _3_ MAC  --- 0 BCN 12 [0 ffffffff 1 0] 
D 4.983296081 _2_ MAC  COO 0 BCN 12 [0 ffffffff 1 0] 
s 5.000320031 _2_ MAC  --- 0 BCN 12 [0 ffffffff 2 0] 
D 5.000896063 _0_ MAC  COO 0 BCN 12 [0 ffffffff 2 0] 
D 5.000896065 _4_ MAC  COO 0 BCN 12 [0 ffffffff 2 0] 
D 5.000896075 _1_ MAC  COO 0 BCN 12 [0 ffffffff 2 0] 
s 5.014848077 _3_ MAC  --- 0 BCN 12 [0 ffffffff 3 0] 
D 5.015424116 _1_ MAC  COO 0 BCN 12 [0 ffffffff 3 0] 
s 5.027360000 _5_ MAC  --- 0 CM7 8 [0 ffffffff 5 0] 
s 5.034688073 _4_ MAC  --- 0 BCN 12 [0 ffffffff 4 0] 
D 5.035264106 _2_ MAC  COO 0 BCN 12 [0 ffffffff 4 0] 
D 5.035264109 _1_ MAC  COO 0 BCN 12 [0 ffffffff 4 0] 
s 5.091392000 _0_ MAC  --- 0 BCN 12 [0 ffffffff 0 0] 
r 5.091968031 _2_ MAC  --- 0 BCN 12 [0 ffffffff 0 0] 
r 5.091968038 _1_ MAC  --- 0 BCN 12 [0 ffffffff 0 0] 
s 5.105600038 _1_ MAC  --- 0 BCN 12 [0 ffffffff 1 0] 
r 5.106176073 _4_ MAC  --- 0 BCN 12 [0 ffffffff 1 0] 
D 5.106176075 _0_ MAC  COO 0 BCN 12 [0 ffffffff 1 0] 
r 5.106176077 _3_ MAC  --- 0 BCN 12 [0 ffffffff 1 0] 
D 5.106176081 _2_ MAC  COO 0 BCN 12 [0 ffffffff 1 0] 
s 5.123200031 _2_ MAC  --- 0 BCN 12 [0 ffffffff 2 0] 
D 5.123776063 _0_ MAC  COO 0 BCN 12 [0 ffffffff 2 0] 
D 5.123776065 _4_ MAC  COO 0 BCN 12 [0 ffffffff 2 0] 
D 5.123776075 _1_ MAC  COO 0 BCN 12 [0 ffffffff 2 0] 
s 5.137728077 _3_ MAC  --- 0 BCN 12 [0 ffffffff 3 0] 
D 5.138304116 _1_ MAC  COO 0 BCN 12 [0 ffffffff 3 0] 
s 5.157568073 _4_ MAC  --- 0 BCN 12 [0 ffffffff 4 0] 
D 5.158144106 _2_ MAC  COO 0 BCN 12 [0 ffffffff 4 0] 
D 5.158144109 _1_ MAC  COO 0 BCN 12 [0 ffffffff 4 0] 
s 5.214272000 _0_ MAC  --- 0 BCN 12 [0 ffffffff 0 0] 
r 5.214848031 _2_ MAC  --- 0 BCN 12 [0 ffffffff 0 0] 
r 5.214848038 _1_ MAC  --- 0 BCN 12 [0 ffffffff 0 0] 
s 5.228480038 _1_ MAC  --- 0 BCN 12 [0 ffffffff 1 0] 
r 5.229056073 _4_ MAC  --- 0 BCN 12 [0 ffffffff 1 0] 
D 5.229056075 _0_ MAC  COO 0 BCN 12 [0 ffffffff 1 0] 
r 5.229056077 _3_ MAC  --- 0 BCN 12 [0 ffffffff 1 0] 
D 5.229056081 _2_ MAC  COO 0 BCN 12 [0 ffffffff 1 0] 
s 5.246080031 _2_ MAC  --- 0 BCN 12 [0 ffffffff 2 0] 
D 5.246656063 _0_ MAC  COO 0 BCN 12 [0 ffffffff 2 0] 
D 5.246656065 _4_ MAC  COO 0 BCN 12 [0 ffffffff 2 0] 
D 5.246656075 _1_ MAC  COO 0 BCN 12 [0 ffffffff 2 0] 
s 5.260608077 _3_ MAC  --- 0 BCN 12 [0 ffffffff 3 0] 
D 5.261184116 _1_ MAC  COO 0 BCN 12 [0 ffffffff 3 0] 
s 5.280448073 _4_ MAC  --- 0 BCN 12 [0 ffffffff 4 0] 
D 5.281024106 _2_ MAC  COO 0 BCN 12 [0 ffffffff 4 0] 
D 5.281024109 _1_ MAC  COO 0 BCN 12 [0 ffffffff 4 0] 
s 5.290720000 _5_ MAC  --- 0 CM1 17 [0 2 5 0] 
r 5.291456034 _2_ MAC  --- 0 CM1 17 [0 2 5 0] 
s 5.291840031 _2_ MAC  --- 0 ACK 5 [0 5 2 0] 
r 5.292192066 _5_ MAC  --- 0 ACK 5 [0 5 2 0] 
s 5.337152000 _0_ MAC  --- 0 BCN 12 [0 ffffffff 0 0] 
r 5.337728031 _2_ MAC  --- 0 BCN 12 [0 ffffffff 0 0] 
r 5.337728038 _1_ MAC  --- 0 BCN 12 [0 ffffffff 0 0] 
s 5.351360038 _1_ MAC  --- 0 BCN 12 [0 ffffffff 1 0] 
r 5.351936073 _4_ MAC  --- 0 BCN 12 [0 ffffffff 1 0] 
D 5.351936075 _0_ MAC  COO 0 BCN 12 [0 ffffffff 1 0] 
r 5.351936077 _3_ MAC  --- 0 BCN 12 [0 ffffffff 1 0] 
D 5.351936081 _2_ MAC  COO 0 BCN 12 [0 ffffffff 1 0] 
s 5.368960031 _2_ MAC  --- 0 BCN 20 [0 ffffffff 2 0] 
D 5.369792063 _0_ MAC  COO 0 BCN 20 [0 ffffffff 2 0] 
D 5.369792065 _4_ MAC  COO 0 BCN 20 [0 ffffffff 2 0] 
D 5.369792075 _1_ MAC  COO 0 BCN 20 [0 ffffffff 2 0] 
s 5.383488077 _3_ MAC  --- 0 BCN 12 [0 ffffffff 3 0] 
D 5.384064116 _1_ MAC  COO 0 BCN 12 [0 ffffffff 3 0] 
s 5.403328073 _4_ MAC  --- 0 BCN 12 [0 ffffffff 4 0] 
D 5.403904106 _2_ MAC  COO 0 BCN 12 [0 ffffffff 4 0] 
D 5.403904109 _1_ MAC  COO 0 BCN 12 [0 ffffffff 4 0] 
s 5.460032000 _0_ MAC  --- 0 BCN 12 [0 ffffffff 0 0] 
r 5.460608031 _2_ MAC  --- 0 BCN 12 [0 ffffffff 0 0] 
r 5.460608038 _1_ MAC  --- 0 BCN 12 [0 ffffffff 0 0] 
s 5.474240038 _1_ MAC  --- 0 BCN 12 [0 ffffffff 1 0] 
r 5.474816073 _4_ MAC  --- 0 BCN 12 [0 ffffffff 1 0] 
D 5.474816075 _0_ MAC  COO 0 BCN 12 [0 ffffffff 1 0] 
r 5.474816077 _3_ MAC  --- 0 BCN 12 [0 ffffffff 1 0] 
D 5.474816081 _2_ MAC  COO 0 BCN 12 [0 ffffffff 1 0] 
s 5.491840031 _2_ MAC  --- 0 BCN 20 [0 ffffffff 2 0] 
D 5.492672063 _0_ MAC  COO 0 BCN 20 [0 ffffffff 2 0] 
D 5.492672065 _4_ MAC  COO 0 BCN 20 [0 ffffffff 2 0] 
D 5.492672075 _1_ MAC  COO 0 BCN 20 [0 ffffffff 2 0] 
s 5.500320000 _6_ MAC  --- 0 CM7 8 [0 ffffffff 6 0] 
r 5.500768025 _7_ MAC  --- 0 CM7 8 [0 ffffffff 6 0] 
r 5.500768037 _3_ MAC  --- 0 CM7 8 [0 ffffffff 6 0] 
s 5.506368077 _3_ MAC  --- 0 BCN 12 [0 ffffffff 3 0] 
D 5.506944116 _1_ MAC  COO 0 BCN 12 [0 ffffffff 3 0] 
s 5.526208073 _4_ MAC  --- 0 BCN 12 [0 ffffffff 4 0] 
D 5.526784106 _2_ MAC  COO 0 BCN 12 [0 ffffffff 4 0] 
D 5.526784109 _1_ MAC  COO 0 BCN 12 [0 ffffffff 4 0] 
s 5.582912000 _0_ MAC  --- 0 BCN 12 [0 ffffffff 0 0] 
r 5.583488031 _2_ MAC  --- 0 BCN 12 [0 ffffffff 0 0] 
r 5.583488038 _1_ MAC  --- 0 BCN 12 [0 ffffffff 0 0] 
s 5.597120038 _1_ MAC  --- 0 BCN 12 [0 ffffffff 1 0] 
r 5.597696073 _4_ MAC  --- 0 BCN 12 [0 ffffffff 1 0] 
D 5.597696075 _0_ MAC  COO 0 BCN 12 [0 ffffffff 1 0] 
r 5.597696077 _3_ MAC  --- 0 BCN 12 [0 ffffffff 1 0] 
D 5.597696081 _2_ MAC  COO 0 BCN 12 [0 ffffffff 1 0] 
s 5.614720031 _2_ MAC  --- 0 BCN 20 [0 ffffffff 2 0] 
D 5.615552063 _0_ MAC  COO 0 BCN 20 [0 ffffffff 2 0] 
D 5.615552065 _4_ MAC  COO 0 BCN 20 [0 ffffffff 2 0] 
D 5.615552075 _1_ MAC  COO 0 BCN 20 [0 ffffffff 2 0] 
s 5.629248077 _3_ MAC  --- 0 BCN 12 [0 ffffffff 3 0] 
D 5.629824116 _1_ MAC  COO 0 BCN 12 [0 ffffffff 3 0] 
s 5.649088073 _4_ MAC  --- 0 BCN 12 [0 ffffffff 4 0] 
D 5.649664106 _2_ MAC  COO 0 BCN 12 [0 ffffffff 4 0] 
D 5.649664109 _1_ MAC  COO 0 BCN 12 [0 ffffffff 4 0] 
s 5.705792000 _0_ MAC  --- 0 BCN 12 [0 ffffffff 0 0] 
r 5.706368031 _2_ MAC  --- 0 BCN 12 [0 ffffffff 0 0] 
r 5.706368038 _1_ MAC  --- 0 BCN 12 [0 ffffffff 0 0] 
s 5.720000038 _1_ MAC  --- 0 BCN 12 [0 ffffffff 1 0] 
r 5.720576073 _4_ MAC  --- 0 BCN 12 [0 ffffffff 1 0] 
D 5.720576075 _0_ MAC  COO 0 BCN 12 [0 ffffffff 1 0] 
r 5.720576077 _3_ MAC  --- 0 BCN 12 [0 ffffffff 1 0] 
D 5.720576081 _2_ MAC  COO 0 BCN 12 [0 ffffffff 1 0] 
s 5.737600031 _2_ MAC  --- 0 BCN 20 [0 ffffffff 2 0] 
D 5.738432063 _0_ MAC  COO 0 BCN 20 [0 ffffffff 2 0] 
D 5.738432065 _4_ MAC  COO 0 BCN 20 [0 ffffffff 2 0] 
D 5.738432075 _1_ MAC  COO 0 BCN 20 [0 ffffffff 2 0] 
s 5.752128077 _3_ MAC  --- 0 BCN 12 [0 ffffffff 3 0] 
D 5.752704116 _1_ MAC  COO 0 BCN 12 [0 ffffffff 3 0] 
s 5.764000000 _6_ MAC  --- 0 CM7 8 [0 ffffffff 6 0] 
s 5.771968073 _4_ MAC  --- 0 BCN 12 [0 ffffffff 4 0] 
D 5.772544106 _2_ MAC  COO 0 BCN 12 [0 ffffffff 4 0] 
D 5.772544109 _1_ MAC  COO 0 BCN 12 [0 ffffffff 4 0] 
s 5.783712066 _5_ MAC  --- 0 CM4 16 [0 2 5 0] 
r 5.784416100 _2_ MAC  --- 0 CM4 16 [0 2 5 0] 
s 5.784640031 _2_ MAC  --- 0 ACK 5 [0 5 2 0] 
r 5.784992066 _5_ MAC  --- 0 ACK 5 [0 5 2 0] 
s 5.785280031 _2_ MAC  --- 0 CM2 25 [0 5 2 0] 
r 5.786272066 _5_ MAC  --- 0 CM2 25 [0 5 2 0] 
s 5.786464066 _5_ MAC  --- 0 ACK 5 [0 2 5 0] 
r 5.786816100 _2_ MAC  --- 0 ACK 5 [0 2 5 0] 
s 5.787648066 _5_ MAC  --- 0 BCN 12 [0 ffffffff 5 0] 
D 5.788224100 _2_ MAC  COO 0 BCN 12 [0 ffffffff 5 0] 
D 5.788224103 _4_ MAC  COO 0 BCN 12 [0 ffffffff 5 0] 
s 5.801600000 _7_ MAC  --- 0 CM7 8 [0 ffffffff 7 0] 
r 5.802048025 _8_ MAC  --- 0 CM7 8 [0 ffffffff 7 0] 
r 5.802048038 _3_ MAC  --- 0 CM7 8 [0 ffffffff 7 0] 
s 5.828672000 _0_ MAC  --- 0 BCN 12 [0 ffffffff 0 0] 
r 5.829248031 _2_ MAC  --- 0 BCN 12 [0 ffffffff 0 0] 
r 5.829248038 _1_ MAC  --- 0 BCN 12 [0 ffffffff 0 0] 
s 5.842880038 _1_ MAC  --- 0 BCN 12 [0 ffffffff 1 0] 
r 5.843456073 _4_ MAC  --- 0 BCN 12 [0 ffffffff 1 0] 
D 5.843456075 _0_ MAC  COO 0 BCN 12 [0 ffffffff 1 0] 
r 5.843456077 _3_ MAC  --- 0 BCN 12 [0 ffffffff 1 0] 
D 5.843456081 _2_ MAC  COO 0 BCN 12 [0 ffffffff 1 0] 
s 5.860480031 _2_ MAC  --- 0 BCN 12 [0 ffffffff 2 0] 
D 5.861056063 _0_ MAC  COO 0 BCN 12 [0 ffffffff 2 0] 
D 5.861056065 _4_ MAC  COO 0 BCN 12 [0 ffffffff 2 0] 
r 5.861056066 _5_ MAC  --- 0 BCN 12 [0 ffffffff 2 0] 
D 5.861056075 _1_ MAC  COO 0 BCN 12 [0 ffffffff 2 0] 
s 5.875008077 _3_ MAC  --- 0 BCN 12 [0 ffffffff 3 0] 
D 5.875584116 _1_ MAC  COO 0 BCN 12 [0 ffffffff 3 0] 
s 5.894848073 _4_ MAC  --- 0 BCN 12 [0 ffffffff 4 0] 
D 5.895424106 _2_ MAC  COO 0 BCN 12 [0 ffffffff 4 0] 
D 5.895424109 _1_ MAC  COO 0 BCN 12 [0 ffffffff 4 0] 
D 5.895424110 _5_ MAC  COO 0 BCN 12 [0 ffffffff 4 0] 
s 5.910528066 _5_ MAC  --- 0 BCN 12 [0 ffffffff 5 0] 
D 5.911104100 _2_ MAC  COO 0 BCN 12 [0 ffffffff 5 0] 
D 5.911104103 _4_ MAC  COO 0 BCN 12 [0 ffffffff 5 0] 
s 5.951552000 _0_ MAC  --- 0 BCN 12 [0 ffffffff 0 0] 
r 5.952128031 _2_ MAC  --- 0 BCN 12 [0 ffffffff 0 0] 
r 5.952128038 _1_ MAC  --- 0 BCN 12 [0 ffffffff 0 0] 
s 5.965760038 _1_ MAC  --- 0 BCN 12 [0 ffffffff 1 0] 
r 5.966336073 _4_ MAC  --- 0 BCN 12 [0 ffffffff 1 0] 
D 5.966336075 _0_ MAC  COO 0 BCN 12 [0 ffffffff 1 0] 
r 5.966336077 _3_ MAC  --- 0 BCN 12 [0 ffffffff 1 0] 
D 5.966336081 _2_ MAC  COO 0 BCN 12 [0 ffffffff 1 0] 
s 5.983360031 _2_ MAC  --- 0 BCN 12 [0 ffffffff 2 0] 
D 5.983936063 _0_ MAC  COO 0 BCN 12 [0 ffffffff 2 0] 
D 5.983936065 _4_ MAC  COO 0 BCN 12 [0 ffffffff 2 0] 
r 5.983936066 _5_ MAC  --- 0 BCN 12 [0 ffffffff 2 0] 
D 5.983936075 _1_ MAC  COO 0 BCN 12 [0 ffffffff 2 0] 
s 5.997888077 _3_ MAC  --- 0 BCN 12 [0 ffffffff 3 0] 
D 5.998464116 _1_ MAC  COO 0 BCN 12 [0 ffffffff 3 0] 
s 6.017728073 _4_ MAC  --- 0 BCN 12 [0 ffffffff 4 0] 
D 6.018304106 _2_ MAC  COO 0 BCN 12 [0 ffffffff 4 0] 
D 6.018304109 _1_ MAC  COO 0 BCN 12 [0 ffffffff 4 0] 
D 6.018304110 _5_ MAC  COO 0 BCN 12 [0 ffffffff 4 0] 
s 6.026400000 _6_ MAC  --- 0 CM7 8 [0 ffffffff 6 0] 
s 6.033408066 _5_ MAC  --- 0 BCN 12 [0 ffffffff 5 0] 
D 6.033984100 _2_ MAC  COO 0 BCN 12 [0 ffffffff 5 0] 
D 6.033984103 _4_ MAC  COO 0 BCN 12 [0 ffffffff 5 0] 
s 6.064000000 _7_ MAC  --- 0 CM7 8 [0 ffffffff 7 0] 
s 6.074432000 _0_ MAC  --- 0 BCN 12 [0 ffffffff 0 0] 
r 6.075008031 _2_ MAC  --- 0 BCN 12 [0 ffffffff 0 0] 
r 6.075008038 _1_ MAC  --- 0 BCN 12 [0 ffffffff 0 0] 
s 6.088640038 _1_ MAC  --- 0 BCN 12 [0 ffffffff 1 0] 
r 6.089216073 _4_ MAC  --- 0 BCN 12 [0 ffffffff 1 0] 
D 6.089216075 _0_ MAC  COO 0 BCN 12 [0 ffffffff 1 0] 
r 6.089216077 _3_ MAC  --- 0 BCN 12 [0 ffffffff 1 0] 
D 6.089216081 _2_ MAC  COO 0 BCN 12 [0 ffffffff 1 0] 
s 6.106240031 _2_ MAC  --- 0 BCN 12 [0 ffffffff 2 0] 
D 6.106816063 _0_ MAC  COO 0 BCN 12 [0 ffffffff 2 0] 
D 6.106816065 _4_ MAC  COO 0 BCN 12 [0 ffffffff 2 0] 
r 6.106816066 _5_ MAC  --- 0 BCN 12 [0 ffffffff 2 0] 
D 6.106816075 _1_ MAC  COO 0 BCN 12 [0 ffffffff 2 0] 
s 6.120768077 _3_ MAC  --- 0 BCN 12 [0 ffffffff 3 0] 
D 6.121344116 _1_ MAC  COO 0 BCN 12 [0 ffffffff 3 0] 
s 6.140608073 _4_ MAC  --- 0 BCN 12 [0 ffffffff 4 0] 
D 6.141184106 _2_ MAC  COO 0 BCN 12 [0 ffffffff 4 0] 
D 6.141184109 _1_ MAC  COO 0 BCN 12 [0 ffffffff 4 0] 
D 6.141184110 _5_ MAC  COO 0 BCN 12 [0 ffffffff 4 0] 
s 6.156288066 _5_ MAC  --- 0 BCN 12 [0 ffffffff 5 0] 
D 6.156864100 _2_ MAC  COO 0 BCN 12 [0 ffffffff 5 0] 
D 6.156864103 _4_ MAC  COO 0 BCN 12 [0 ffffffff 5 0] 
s 6.197312000 _0_ MAC  --- 0 BCN 12 [0 ffffffff 0 0] 
r 6.197888031 _2_ MAC  --- 0 BCN 12 [0 ffffffff 0 0] 
r 6.197888038 _1_ MAC  --- 0 BCN 12 [0 ffffffff 0 0] 
s 6.211520038 _1_ MAC  --- 0 BCN 12 [0 ffffffff 1 0] 
r 6.212096073 _4_ MAC  --- 0 BCN 12 [0 ffffffff 1 0] 
D 6.212096075 _0_ MAC  COO 0 BCN 12 [0 ffffffff 1 0] 
r 6.212096077 _3_ MAC  --- 0 BCN 12 [0 ffffffff 1 0] 
D 6.212096081 _2_ MAC  COO 0 BCN 12 [0 ffffffff 1 0] 
s 6.229120031 _2_ MAC  --- 0 BCN 12 [0 ffffffff 2 0] 
D 6.229696063 _0_ MAC  COO 0 BCN 12 [0 ffffffff 2 0] 
D 6.229696065 _4_ MAC  COO 0 BCN 12 [0 ffffffff 2 0] 
r 6.229696066 _5_ MAC  --- 0 BCN 12 [0 ffffffff 2 0] 
D 6.229696075 _1_ MAC  COO 0 BCN 12 [0 ffffffff 2 0] 
s 6.263488073 _4_ MAC  --- 0 BCN 12 [0 ffffffff 4 0] 
D 6.264064106 _2_ MAC  COO 0 BCN 12 [0 ffffffff 4 0] 
D 6.264064109 _1_ MAC  COO 0 BCN 12 [0 ffffffff 4 0] 
D 6.264064110 _5_ MAC  COO 0 BCN 12 [0 ffffffff 4 0] 
s 6.279168066 _5_ MAC  --- 0 BCN 12 [0 ffffffff 5 0] 
D 6.279744100 _2_ MAC  COO 0 BCN 12 [0 ffffffff 5 0] 
D 6.279744103 _4_ MAC  COO 0 BCN 12 [0 ffffffff 5 0] 
s 6.289440000 _6_ MAC  --- 0 CM1 17 [0 3 6 0] 
r 6.290176037 _3_ MAC  --- 0 CM1 17 [0 3 6 0] 
s 6.290560077 _3_ MAC  --- 0 ACK 5 [0 6 3 0] 
r 6.290912113 _6_ MAC  --- 0 ACK 5 [0 6 3 0] 
s 6.320192000 _0_ MAC  --- 0 BCN 12 [0 ffffffff 0 0] 
r 6.320768031 _2_ MAC  --- 0 BCN 12 [0 ffffffff 0 0] 
r 6.320768038 _1_ MAC  --- 0 BCN 12 [0 ffffffff 0 0] 
s 6.326720000 _7_ MAC  --- 0 CM7 8 [0 ffffffff 7 0] 
s 6.334400038 _1_ MAC  --- 0 BCN 12 [0 ffffffff 1 0] 
r 6.334976073 _4_ MAC  --- 0 BCN 12 [0 ffffffff 1 0] 
D 6.334976075 _0_ MAC  COO 0 BCN 12 [0 ffffffff 1 0] 