# nam4wpan #
c -t * -i 32 -n tomato
c -t * -i 33 -n green
c -t * -i 34 -n navy
c -t * -i 35 -n blue
c -t * -i 36 -n blue
c -t * -i 37 -n green4
c -t * -i 38 -n green4
n -t * -s 0  -x 30 -y 40 -Z 0 -z 2  -v circle -c black
n -t * -s 1  -x 22 -y 32 -Z 0 -z 2  -v circle -c black
n -t * -s 2  -x 35 -y 32 -Z 0 -z 2  -v circle -c black
n -t * -s 3  -x 13.5 -y 24 -Z 0 -z 2  -v circle -c black
n -t * -s 4  -x 29 -y 24 -Z 0 -z 2  -v circle -c black
n -t * -s 5  -x 40 -y 23 -Z 0 -z 2  -v circle -c black
n -t * -s 6  -x 9 -y 14 -Z 0 -z 2  -v circle -c black
n -t * -s 7  -x 16.5 -y 13 -Z 0 -z 2  -v circle -c black
n -t * -s 8  -x 24 -y 13 -Z 0 -z 2  -v circle -c black
n -t * -s 9  -x 34 -y 13.5 -Z 0 -z 2  -v circle -c black
n -t * -s 10  -x 44 -y 13 -Z 0 -z 2  -v circle -c black
V -t * -v 1.0a5 -a 0
W -t * -x 50 -y 50
A -t * -n 1 -p 0 -o 0x7fffffff -c 30 -a 1
A -t * -h 1 -m 1073741823 -s 0
v -t 0.000000000 -e set_rate_ext 3ms 1
n -t 0.000000000 -s 0 -S DLABEL -l "PAN Coor" -L ""
+ -t 0.001920000 -s 0 -d -1 -p CM7 -e 8 -c 2 -a 34 -i 0 -k MAC 
- -t 0.001920000 -s 0 -d -1 -p CM7 -e 8 -c 2 -a 34 -i 0 -k MAC
h -t 0.001920000 -s 0 -d -1 -p CM7 -e 8 -c 2 -a 34 -i 0 -k MAC -R 15.00 -D 0.00
r -t 0.002368031 -s 2 -d -1 -p CM7 -e 8 -c 2 -a 34 -i 0 -k MAC
r -t 0.002368038 -s 1 -d -1 -p CM7 -e 8 -c 2 -a 34 -i 0 -k MAC
+ -t 0.143360000 -s 0 -d -1 -p CM7 -e 8 -c 2 -a 34 -i 0 -k MAC 
- -t 0.143360000 -s 0 -d -1 -p CM7 -e 8 -c 2 -a 34 -i 0 -k MAC
h -t 0.143360000 -s 0 -d -1 -p CM7 -e 8 -c 2 -a 34 -i 0 -k MAC -R 15.00 -D 0.00
+ -t 0.282880000 -s 0 -d -1 -p CM7 -e 8 -c 2 -a 34 -i 0 -k MAC 
- -t 0.282880000 -s 0 -d -1 -p CM7 -e 8 -c 2 -a 34 -i 0 -k MAC
h -t 0.282880000 -s 0 -d -1 -p CM7 -e 8 -c 2 -a 34 -i 0 -k MAC -R 15.00 -D 0.00
n -t 0.421760001 -s 0 -S COLOR -c tomato -o black
+ -t 0.421952000 -s 0 -d -1 -p BCN -e 12 -c 2 -a 34 -i 0 -k MAC 
- -t 0.421952000 -s 0 -d -1 -p BCN -e 12 -c 2 -a 34 -i 0 -k MAC
h -t 0.421952000 -s 0 -d -1 -p BCN -e 12 -c 2 -a 34 -i 0 -k MAC -R 15.00 -D 0.00
n -t 0.451761001 -s 0 -S COLOR -c tomato -o tomato
+ -t 0.501920000 -s 1 -d -1 -p CM7 -e 8 -c 2 -a 34 -i 0 -k MAC 
- -t 0.501920000 -s 1 -d -1 -p CM7 -e 8 -c 2 -a 34 -i 0 -k MAC
h -t 0.501920000 -s 1 -d -1 -p CM7 -e 8 -c 2 -a 34 -i 0 -k MAC -R 15.00 -D 0.00
r -t 0.502368035 -s 4 -d -1 -p CM7 -e 8 -c 2 -a 34 -i 0 -k MAC
r -t 0.502368038 -s 0 -d -1 -p CM7 -e 8 -c 2 -a 34 -i 0 -k MAC
r -t 0.502368039 -s 3 -d -1 -p CM7 -e 8 -c 2 -a 34 -i 0 -k MAC
r -t 0.502368043 -s 2 -d -1 -p CM7 -e 8 -c 2 -a 34 -i 0 -k MAC
+ -t 0.544832000 -s 0 -d -1 -p BCN -e 12 -c 2 -a 34 -i 0 -k MAC 
- -t 0.544832000 -s 0 -d -1 -p BCN -e 12 -c 2 -a 34 -i 0 -k MAC
h -t 0.544832000 -s 0 -d -1 -p BCN -e 12 -c 2 -a 34 -i 0 -k MAC -R 15.00 -D 0.00
+ -t 0.667712000 -s 0 -d -1 -p BCN -e 12 -c 2 -a 34 -i 0 -k MAC 
- -t 0.667712000 -s 0 -d -1 -p BCN -e 12 -c 2 -a 34 -i 0 -k MAC
h -t 0.667712000 -s 0 -d -1 -p BCN -e 12 -c 2 -a 34 -i 0 -k MAC -R 15.00 -D 0.00
+ -t 0.764640000 -s 1 -d -1 -p CM7 -e 8 -c 2 -a 34 -i 0 -k MAC 
- -t 0.764640000 -s 1 -d -1 -p CM7 -e 8 -c 2 -a 34 -i 0 -k MAC
h -t 0.764640000 -s 1 -d -1 -p CM7 -e 8 -c 2 -a 34 -i 0 -k MAC -R 15.00 -D 0.00
+ -t 0.790592000 -s 0 -d -1 -p BCN -e 12 -c 2 -a 34 -i 0 -k MAC 
- -t 0.790592000 -s 0 -d -1 -p BCN -e 12 -c 2 -a 34 -i 0 -k MAC
h -t 0.790592000 -s 0 -d -1 -p BCN -e 12 -c 2 -a 34 -i 0 -k MAC -R 15.00 -D 0.00
+ -t 0.913472000 -s 0 -d -1 -p BCN -e 12 -c 2 -a 34 -i 0 -k MAC 
- -t 0.913472000 -s 0 -d -1 -p BCN -e 12 -c 2 -a 34 -i 0 -k MAC
h -t 0.913472000 -s 0 -d -1 -p BCN -e 12 -c 2 -a 34 -i 0 -k MAC -R 15.00 -D 0.00
+ -t 1.028000000 -s 1 -d -1 -p CM7 -e 8 -c 2 -a 34 -i 0 -k MAC 
- -t 1.028000000 -s 1 -d -1 -p CM7 -e 8 -c 2 -a 34 -i 0 -k MAC
h -t 1.028000000 -s 1 -d -1 -p CM7 -e 8 -c 2 -a 34 -i 0 -k MAC -R 15.00 -D 0.00
+ -t 1.036352000 -s 0 -d -1 -p BCN -e 12 -c 2 -a 34 -i 0 -k MAC 
- -t 1.036352000 -s 0 -d -1 -p BCN -e 12 -c 2 -a 34 -i 0 -k MAC
h -t 1.036352000 -s 0 -d -1 -p BCN -e 12 -c 2 -a 34 -i 0 -k MAC -R 15.00 -D 0.00
+ -t 1.159232000 -s 0 -d -1 -p BCN -e 12 -c 2 -a 34 -i 0 -k MAC 
- -t 1.159232000 -s 0 -d -1 -p BCN -e 12 -c 2 -a 34 -i 0 -k MAC
h -t 1.159232000 -s 0 -d -1 -p BCN -e 12 -c 2 -a 34 -i 0 -k MAC -R 15.00 -D 0.00
+ -t 1.282112000 -s 0 -d -1 -p BCN -e 12 -c 2 -a 34 -i 0 -k MAC 
- -t 1.282112000 -s 0 -d -1 -p BCN -e 12 -c 2 -a 34 -i 0 -k MAC
h -t 1.282112000 -s 0 -d -1 -p BCN -e 12 -c 2 -a 34 -i 0 -k MAC -R 15.00 -D 0.00
+ -t 1.291040000 -s 1 -d 0 -p ACRP -e 17 -c 2 -a 34 -i 0 -k MAC 
- -t 1.291040000 -s 1 -d 0 -p ACRP -e 17 -c 2 -a 34 -i 0 -k MAC
h -t 1.291040000 -s 1 -d 0 -p ACRP -e 17 -c 2 -a 34 -i 0 -k MAC
r -t 1.291776038 -s 0 -d 0 -p ACRP -e 17 -c 2 -a 34 -i 0 -k MAC
+ -t 1.292032000 -s 0 -d 1 -p ACK -e 5 -c 2 -a 34 -i 0 -k MAC 
- -t 1.292032000 -s 0 -d 1 -p ACK -e 5 -c 2 -a 34 -i 0 -k MAC
h -t 1.292032000 -s 0 -d 1 -p ACK -e 5 -c 2 -a 34 -i 0 -k MAC
r -t 1.292384038 -s 1 -d 1 -p ACK -e 5 -c 2 -a 34 -i 0 -k MAC
+ -t 1.404992000 -s 0 -d -1 -p BCN -e 20 -c 2 -a 34 -i 0 -k MAC 
- -t 1.404992000 -s 0 -d -1 -p BCN -e 20 -c 2 -a 34 -i 0 -k MAC
h -t 1.404992000 -s 0 -d -1 -p BCN -e 20 -c 2 -a 34 -i 0 -k MAC -R 15.00 -D 0.00
+ -t 1.501280000 -s 2 -d -1 -p CM7 -e 8 -c 2 -a 34 -i 0 -k MAC 
- -t 1.501280000 -s 2 -d -1 -p CM7 -e 8 -c 2 -a 34 -i 0 -k MAC
h -t 1.501280000 -s 2 -d -1 -p CM7 -e 8 -c 2 -a 34 -i 0 -k MAC -R 15.00 -D 0.00
r -t 1.501728031 -s 0 -d -1 -p CM7 -e 8 -c 2 -a 34 -i 0 -k MAC
r -t 1.501728033 -s 4 -d -1 -p CM7 -e 8 -c 2 -a 34 -i 0 -k MAC
r -t 1.501728034 -s 5 -d -1 -p CM7 -e 8 -c 2 -a 34 -i 0 -k MAC
+ -t 1.527872000 -s 0 -d -1 -p BCN -e 20 -c 2 -a 34 -i 0 -k MAC 
- -t 1.527872000 -s 0 -d -1 -p BCN -e 20 -c 2 -a 34 -i 0 -k MAC
h -t 1.527872000 -s 0 -d -1 -p BCN -e 20 -c 2 -a 34 -i 0 -k MAC -R 15.00 -D 0.00
+ -t 1.650752000 -s 0 -d -1 -p BCN -e 20 -c 2 -a 34 -i 0 -k MAC 
- -t 1.650752000 -s 0 -d -1 -p BCN -e 20 -c 2 -a 34 -i 0 -k MAC
h -t 1.650752000 -s 0 -d -1 -p BCN -e 20 -c 2 -a 34 -i 0 -k MAC -R 15.00 -D 0.00
+ -t 1.764320000 -s 2 -d -1 -p CM7 -e 8 -c 2 -a 34 -i 0 -k MAC 
- -t 1.764320000 -s 2 -d -1 -p CM7 -e 8 -c 2 -a 34 -i 0 -k MAC
h -t 1.764320000 -s 2 -d -1 -p CM7 -e 8 -c 2 -a 34 -i 0 -k MAC -R 15.00 -D 0.00
+ -t 1.773632000 -s 0 -d -1 -p BCN -e 20 -c 2 -a 34 -i 0 -k MAC 
- -t 1.773632000 -s 0 -d -1 -p BCN -e 20 -c 2 -a 34 -i 0 -k MAC
h -t 1.773632000 -s 0 -d -1 -p BCN -e 20 -c 2 -a 34 -i 0 -k MAC -R 15.00 -D 0.00
+ -t 1.783904038 -s 1 -d 0 -p CM4 -e 16 -c 2 -a 34 -i 0 -k MAC 
- -t 1.783904038 -s 1 -d 0 -p CM4 -e 16 -c 2 -a 34 -i 0 -k MAC
h -t 1.783904038 -s 1 -d 0 -p CM4 -e 16 -c 2 -a 34 -i 0 -k MAC
r -t 1.784608075 -s 0 -d 0 -p CM4 -e 16 -c 2 -a 34 -i 0 -k MAC
+ -t 1.784832000 -s 0 -d 1 -p ACK -e 5 -c 2 -a 34 -i 0 -k MAC 
- -t 1.784832000 -s 0 -d 1 -p ACK -e 5 -c 2 -a 34 -i 0 -k MAC
h -t 1.784832000 -s 0 -d 1 -p ACK -e 5 -c 2 -a 34 -i 0 -k MAC
r -t 1.785184038 -s 1 -d 1 -p ACK -e 5 -c 2 -a 34 -i 0 -k MAC
+ -t 1.785472000 -s 0 -d 1 -p CM2 -e 25 -c 2 -a 34 -i 0 -k MAC 
- -t 1.785472000 -s 0 -d 1 -p CM2 -e 25 -c 2 -a 34 -i 0 -k MAC
h -t 1.785472000 -s 0 -d 1 -p CM2 -e 25 -c 2 -a 34 -i 0 -k MAC
r -t 1.786464038 -s 1 -d 1 -p CM2 -e 25 -c 2 -a 34 -i 0 -k MAC
+ -t 1.786656038 -s 1 -d 0 -p ACK -e 5 -c 2 -a 34 -i 0 -k MAC 
- -t 1.786656038 -s 1 -d 0 -p ACK -e 5 -c 2 -a 34 -i 0 -k MAC
h -t 1.786656038 -s 1 -d 0 -p ACK -e 5 -c 2 -a 34 -i 0 -k MAC
r -t 1.787008075 -s 0 -d 0 -p ACK -e 5 -c 2 -a 34 -i 0 -k MAC
n -t 1.787648039 -s 1 -S COLOR -c blue -o black
n -t 1.787648039 -s 1 -S DLABEL -l [0] -L ""
+ -t 1.787840038 -s 1 -d -1 -p BCN -e 12 -c 2 -a 34 -i 0 -k MAC 
- -t 1.787840038 -s 1 -d -1 -p BCN -e 12 -c 2 -a 34 -i 0 -k MAC
h -t 1.787840038 -s 1 -d -1 -p BCN -e 12 -c 2 -a 34 -i 0 -k MAC -R 15.00 -D 0.00
d -t 1.788416075 -s 0 -d -1 -p BCN -e 12 -c 2 -a 34 -i 0 -k MAC
n -t 1.817649039 -s 1 -S COLOR -c blue -o blue
+ -t 1.896512000 -s 0 -d -1 -p BCN -e 12 -c 2 -a 34 -i 0 -k MAC 
- -t 1.896512000 -s 0 -d -1 -p BCN -e 12 -c 2 -a 34 -i 0 -k MAC
h -t 1.896512000 -s 0 -d -1 -p BCN -e 12 -c 2 -a 34 -i 0 -k MAC -R 15.00 -D 0.00
r -t 1.897088038 -s 1 -d -1 -p BCN -e 12 -c 2 -a 34 -i 0 -k MAC
n -t 1.907088038 -s 1 -S COLOR -i LightGrey -I black -c blue -o blue
+ -t 1.910720038 -s 1 -d -1 -p BCN -e 12 -c 2 -a 34 -i 0 -k MAC 
- -t 1.910720038 -s 1 -d -1 -p BCN -e 12 -c 2 -a 34 -i 0 -k MAC
h -t 1.910720038 -s 1 -d -1 -p BCN -e 12 -c 2 -a 34 -i 0 -k MAC -R 15.00 -D 0.00
d -t 1.911296075 -s 0 -d -1 -p BCN -e 12 -c 2 -a 34 -i 0 -k MAC
n -t 1.917088038 -s 1 -S COLOR -i black -I LightGrey -c blue -o blue
+ -t 2.019392000 -s 0 -d -1 -p BCN -e 12 -c 2 -a 34 -i 0 -k MAC 
- -t 2.019392000 -s 0 -d -1 -p BCN -e 12 -c 2 -a 34 -i 0 -k MAC
h -t 2.019392000 -s 0 -d -1 -p BCN -e 12 -c 2 -a 34 -i 0 -k MAC -R 15.00 -D 0.00
r -t 2.019968038 -s 1 -d -1 -p BCN -e 12 -c 2 -a 34 -i 0 -k MAC
+ -t 2.028000000 -s 2 -d -1 -p CM7 -e 8 -c 2 -a 34 -i 0 -k MAC 
- -t 2.028000000 -s 2 -d -1 -p CM7 -e 8 -c 2 -a 34 -i 0 -k MAC
h -t 2.028000000 -s 2 -d -1 -p CM7 -e 8 -c 2 -a 34 -i 0 -k MAC -R 15.00 -D 0.00
n -t 2.029968038 -s 1 -S COLOR -i LightGrey -I black -c blue -o blue
+ -t 2.033600038 -s 1 -d -1 -p BCN -e 12 -c 2 -a 34 -i 0 -k MAC 
- -t 2.033600038 -s 1 -d -1 -p BCN -e 12 -c 2 -a 34 -i 0 -k MAC
h -t 2.033600038 -s 1 -d -1 -p BCN -e 12 -c 2 -a 34 -i 0 -k MAC -R 15.00 -D 0.00
d -t 2.034176075 -s 0 -d -1 -p BCN -e 12 -c 2 -a 34 -i 0 -k MAC
n -t 2.039968038 -s 1 -S COLOR -i black -I LightGrey -c blue -o blue
+ -t 2.142272000 -s 0 -d -1 -p BCN -e 12 -c 2 -a 34 -i 0 -k MAC 
- -t 2.142272000 -s 0 -d -1 -p BCN -e 12 -c 2 -a 34 -i 0 -k MAC
h -t 2.142272000 -s 0 -d -1 -p BCN -e 12 -c 2 -a 34 -i 0 -k MAC -R 15.00 -D 0.00
r -t 2.142848038 -s 1 -d -1 -p BCN -e 12 -c 2 -a 34 -i 0 -k MAC
n -t 2.152848038 -s 1 -S COLOR -i LightGrey -I black -c blue -o blue
+ -t 2.156480038 -s 1 -d -1 -p BCN -e 12 -c 2 -a 34 -i 0 -k MAC 
- -t 2.156480038 -s 1 -d -1 -p BCN -e 12 -c 2 -a 34 -i 0 -k MAC
h -t 2.156480038 -s 1 -d -1 -p BCN -e 12 -c 2 -a 34 -i 0 -k MAC -R 15.00 -D 0.00
d -t 2.157056075 -s 0 -d -1 -p BCN -e 12 -c 2 -a 34 -i 0 -k MAC
n -t 2.162848038 -s 1 -S COLOR -i black -I LightGrey -c blue -o blue
+ -t 2.265152000 -s 0 -d -1 -p BCN -e 12 -c 2 -a 34 -i 0 -k MAC 
- -t 2.265152000 -s 0 -d -1 -p BCN -e 12 -c 2 -a 34 -i 0 -k MAC
h -t 2.265152000 -s 0 -d -1 -p BCN -e 12 -c 2 -a 34 -i 0 -k MAC -R 15.00 -D 0.00
r -t 2.265728038 -s 1 -d -1 -p BCN -e 12 -c 2 -a 34 -i 0 -k MAC
n -t 2.275728038 -s 1 -S COLOR -i LightGrey -I black -c blue -o blue
+ -t 2.279360038 -s 1 -d -1 -p BCN -e 12 -c 2 -a 34 -i 0 -k MAC 
- -t 2.279360038 -s 1 -d -1 -p BCN -e 12 -c 2 -a 34 -i 0 -k MAC
h -t 2.279360038 -s 1 -d -1 -p BCN -e 12 -c 2 -a 34 -i 0 -k MAC -R 15.00 -D 0.00
d -t 2.279936075 -s 0 -d -1 -p BCN -e 12 -c 2 -a 34 -i 0 -k MAC
n -t 2.285728038 -s 1 -S COLOR -i black -I LightGrey -c blue -o blue
+ -t 2.291680000 -s 2 -d 0 -p ACRP -e 17 -c 2 -a 34 -i 0 -k MAC 
- -t 2.291680000 -s 2 -d 0 -p ACRP -e 17 -c 2 -a 34 -i 0 -k MAC
h -t 2.291680000 -s 2 -d 0 -p ACRP -e 17 -c 2 -a 34 -i 0 -k MAC
r -t 2.292416031 -s 0 -d 0 -p ACRP -e 17 -c 2 -a 34 -i 0 -k MAC
+ -t 2.292672000 -s 0 -d 2 -p ACK -e 5 -c 2 -a 34 -i 0 -k MAC 
- -t 2.292672000 -s 0 -d 2 -p ACK -e 5 -c 2 -a 34 -i 0 -k MAC
h -t 2.292672000 -s 0 -d 2 -p ACK -e 5 -c 2 -a 34 -i 0 -k MAC
r -t 2.293024031 -s 2 -d 2 -p ACK -e 5 -c 2 -a 34 -i 0 -k MAC
+ -t 2.388032000 -s 0 -d -1 -p BCN -e 20 -c 2 -a 34 -i 0 -k MAC 
- -t 2.388032000 -s 0 -d -1 -p BCN -e 20 -c 2 -a 34 -i 0 -k MAC
h -t 2.388032000 -s 0 -d -1 -p BCN -e 20 -c 2 -a 34 -i 0 -k MAC -R 15.00 -D 0.00
r -t 2.388864038 -s 1 -d -1 -p BCN -e 20 -c 2 -a 34 -i 0 -k MAC
n -t 2.398864038 -s 1 -S COLOR -i LightGrey -I black -c blue -o blue
+ -t 2.402240038 -s 1 -d -1 -p BCN -e 12 -c 2 -a 34 -i 0 -k MAC 
- -t 2.402240038 -s 1 -d -1 -p BCN -e 12 -c 2 -a 34 -i 0 -k MAC
h -t 2.402240038 -s 1 -d -1 -p BCN -e 12 -c 2 -a 34 -i 0 -k MAC -R 15.00 -D 0.00
d -t 2.402816075 -s 0 -d -1 -p BCN -e 12 -c 2 -a 34 -i 0 -k MAC
n -t 2.408864038 -s 1 -S COLOR -i black -I LightGrey -c blue -o blue
+ -t 2.501280000 -s 3 -d -1 -p CM7 -e 8 -c 2 -a 34 -i 0 -k MAC 
- -t 2.501280000 -s 3 -d -1 -p CM7 -e 8 -c 2 -a 34 -i 0 -k MAC
h -t 2.501280000 -s 3 -d -1 -p CM7 -e 8 -c 2 -a 34 -i 0 -k MAC -R 15.00 -D 0.00
r -t 2.501728037 -s 6 -d -1 -p CM7 -e 8 -c 2 -a 34 -i 0 -k MAC
r -t 2.501728038 -s 7 -d -1 -p CM7 -e 8 -c 2 -a 34 -i 0 -k MAC
r -t 2.501728039 -s 1 -d -1 -p CM7 -e 8 -c 2 -a 34 -i 0 -k MAC
+ -t 2.510912000 -s 0 -d -1 -p BCN -e 20 -c 2 -a 34 -i 0 -k MAC 
- -t 2.510912000 -s 0 -d -1 -p BCN -e 20 -c 2 -a 34 -i 0 -k MAC
h -t 2.510912000 -s 0 -d -1 -p BCN -e 20 -c 2 -a 34 -i 0 -k MAC -R 15.00 -D 0.00
r -t 2.511744038 -s 1 -d -1 -p BCN -e 20 -c 2 -a 34 -i 0 -k MAC
n -t 2.521744038 -s 1 -S COLOR -i LightGrey -I black -c blue -o blue
+ -t 2.525120038 -s 1 -d -1 -p BCN -e 12 -c 2 -a 34 -i 0 -k MAC 
- -t 2.525120038 -s 1 -d -1 -p BCN -e 12 -c 2 -a 34 -i 0 -k MAC
h -t 2.525120038 -s 1 -d -1 -p BCN -e 12 -c 2 -a 34 -i 0 -k MAC -R 15.00 -D 0.00
d -t 2.525696075 -s 0 -d -1 -p BCN -e 12 -c 2 -a 34 -i 0 -k MAC
n -t 2.531744038 -s 1 -S COLOR -i black -I LightGrey -c blue -o blue
+ -t 2.633792000 -s 0 -d -1 -p BCN -e 20 -c 2 -a 34 -i 0 -k MAC 
- -t 2.633792000 -s 0 -d -1 -p BCN -e 20 -c 2 -a 34 -i 0 -k MAC
h -t 2.633792000 -s 0 -d -1 -p BCN -e 20 -c 2 -a 34 -i 0 -k MAC -R 15.00 -D 0.00
r -t 2.634624038 -s 1 -d -1 -p BCN -e 20 -c 2 -a 34 -i 0 -k MAC
n -t 2.644624038 -s 1 -S COLOR -i LightGrey -I black -c blue -o blue
+ -t 2.648000038 -s 1 -d -1 -p BCN -e 12 -c 2 -a 34 -i 0 -k MAC 
- -t 2.648000038 -s 1 -d -1 -p BCN -e 12 -c 2 -a 34 -i 0 -k MAC
h -t 2.648000038 -s 1 -d -1 -p BCN -e 12 -c 2 -a 34 -i 0 -k MAC -R 15.00 -D 0.00
d -t 2.648576075 -s 0 -d -1 -p BCN -e 12 -c 2 -a 34 -i 0 -k MAC
n -t 2.654624038 -s 1 -S COLOR -i black -I LightGrey -c blue -o blue
+ -t 2.756672000 -s 0 -d -1 -p BCN -e 20 -c 2 -a 34 -i 0 -k MAC 
- -t 2.756672000 -s 0 -d -1 -p BCN -e 20 -c 2 -a 34 -i 0 -k MAC
h -t 2.756672000 -s 0 -d -1 -p BCN -e 20 -c 2 -a 34 -i 0 -k MAC -R 15.00 -D 0.00
r -t 2.757504038 -s 1 -d -1 -p BCN -e 20 -c 2 -a 34 -i 0 -k MAC
+ -t 2.764640000 -s 3 -d -1 -p CM7 -e 8 -c 2 -a 34 -i 0 -k MAC 
- -t 2.764640000 -s 3 -d -1 -p CM7 -e 8 -c 2 -a 34 -i 0 -k MAC
h -t 2.764640000 -s 3 -d -1 -p CM7 -e 8 -c 2 -a 34 -i 0 -k MAC -R 15.00 -D 0.00
n -t 2.767504038 -s 1 -S COLOR -i LightGrey -I black -c blue -o blue
+ -t 2.770880038 -s 1 -d -1 -p BCN -e 12 -c 2 -a 34 -i 0 -k MAC 
- -t 2.770880038 -s 1 -d -1 -p BCN -e 12 -c 2 -a 34 -i 0 -k MAC
h -t 2.770880038 -s 1 -d -1 -p BCN -e 12 -c 2 -a 34 -i 0 -k MAC -R 15.00 -D 0.00
d -t 2.771456075 -s 0 -d -1 -p BCN -e 12 -c 2 -a 34 -i 0 -k MAC
n -t 2.777504038 -s 1 -S COLOR -i black -I LightGrey -c blue -o blue
+ -t 2.784544031 -s 2 -d 0 -p CM4 -e 16 -c 2 -a 34 -i 0 -k MAC 
- -t 2.784544031 -s 2 -d 0 -p CM4 -e 16 -c 2 -a 34 -i 0 -k MAC
h -t 2.784544031 -s 2 -d 0 -p CM4 -e 16 -c 2 -a 34 -i 0 -k MAC
r -t 2.785248063 -s 0 -d 0 -p CM4 -e 16 -c 2 -a 34 -i 0 -k MAC
+ -t 2.785472000 -s 0 -d 2 -p ACK -e 5 -c 2 -a 34 -i 0 -k MAC 
- -t 2.785472000 -s 0 -d 2 -p ACK -e 5 -c 2 -a 34 -i 0 -k MAC
h -t 2.785472000 -s 0 -d 2 -p ACK -e 5 -c 2 -a 34 -i 0 -k MAC
r -t 2.785824031 -s 2 -d 2 -p ACK -e 5 -c 2 -a 34 -i 0 -k MAC
+ -t 2.786112000 -s 0 -d 2 -p CM2 -e 25 -c 2 -a 34 -i 0 -k MAC 
- -t 2.786112000 -s 0 -d 2 -p CM2 -e 25 -c 2 -a 34 -i 0 -k MAC
h -t 2.786112000 -s 0 -d 2 -p CM2 -e 25 -c 2 -a 34 -i 0 -k MAC
r -t 2.787104031 -s 2 -d 2 -p CM2 -e 25 -c 2 -a 34 -i 0 -k MAC
+ -t 2.787296031 -s 2 -d 0 -p ACK -e 5 -c 2 -a 34 -i 0 -k MAC 
- -t 2.787296031 -s 2 -d 0 -p ACK -e 5 -c 2 -a 34 -i 0 -k MAC
h -t 2.787296031 -s 2 -d 0 -p ACK -e 5 -c 2 -a 34 -i 0 -k MAC
r -t 2.787648063 -s 0 -d 0 -p ACK -e 5 -c 2 -a 34 -i 0 -k MAC
n -t 2.788288032 -s 2 -S COLOR -c blue -o black
n -t 2.788288032 -s 2 -S DLABEL -l [0] -L ""
+ -t 2.788480031 -s 2 -d -1 -p BCN -e 12 -c 2 -a 34 -i 0 -k MAC 
- -t 2.788480031 -s 2 -d -1 -p BCN -e 12 -c 2 -a 34 -i 0 -k MAC
h -t 2.788480031 -s 2 -d -1 -p BCN -e 12 -c 2 -a 34 -i 0 -k MAC -R 15.00 -D 0.00
d -t 2.789056063 -s 0 -d -1 -p BCN -e 12 -c 2 -a 34 -i 0 -k MAC
d -t 2.789056075 -s 1 -d -1 -p BCN -e 12 -c 2 -a 34 -i 0 -k MAC
n -t 2.818289032 -s 2 -S COLOR -c blue -o blue
+ -t 2.879552000 -s 0 -d -1 -p BCN -e 12 -c 2 -a 34 -i 0 -k MAC 
- -t 2.879552000 -s 0 -d -1 -p BCN -e 12 -c 2 -a 34 -i 0 -k MAC
h -t 2.879552000 -s 0 -d -1 -p BCN -e 12 -c 2 -a 34 -i 0 -k MAC -R 15.00 -D 0.00
r -t 2.880128031 -s 2 -d -1 -p BCN -e 12 -c 2 -a 34 -i 0 -k MAC
r -t 2.880128038 -s 1 -d -1 -p BCN -e 12 -c 2 -a 34 -i 0 -k MAC
n -t 2.890128031 -s 2 -S COLOR -i LightGrey -I black -c blue -o blue
n -t 2.890128038 -s 1 -S COLOR -i LightGrey -I black -c blue -o blue
+ -t 2.893760038 -s 1 -d -1 -p BCN -e 12 -c 2 -a 34 -i 0 -k MAC 
- -t 2.893760038 -s 1 -d -1 -p BCN -e 12 -c 2 -a 34 -i 0 -k MAC
h -t 2.893760038 -s 1 -d -1 -p BCN -e 12 -c 2 -a 34 -i 0 -k MAC -R 15.00 -D 0.00
d -t 2.894336075 -s 0 -d -1 -p BCN -e 12 -c 2 -a 34 -i 0 -k MAC
d -t 2.894336081 -s 2 -d -1 -p BCN -e 12 -c 2 -a 34 -i 0 -k MAC
n -t 2.900128031 -s 2 -S COLOR -i black -I LightGrey -c blue -o blue
n -t 2.900128038 -s 1 -S COLOR -i black -I LightGrey -c blue -o blue
+ -t 2.911360031 -s 2 -d -1 -p BCN -e 12 -c 2 -a 34 -i 0 -k MAC 
- -t 2.911360031 -s 2 -d -1 -p BCN -e 12 -c 2 -a 34 -i 0 -k MAC
h -t 2.911360031 -s 2 -d -1 -p BCN -e 12 -c 2 -a 34 -i 0 -k MAC -R 15.00 -D 0.00
d -t 2.911936063 -s 0 -d -1 -p BCN -e 12 -c 2 -a 34 -i 0 -k MAC
d -t 2.911936075 -s 1 -d -1 -p BCN -e 12 -c 2 -a 34 -i 0 -k MAC
+ -t 3.002432000 -s 0 -d -1 -p BCN -e 12 -c 2 -a 34 -i 0 -k MAC 
- -t 3.002432000 -s 0 -d -1 -p BCN -e 12 -c 2 -a 34 -i 0 -k MAC
h -t 3.002432000 -s 0 -d -1 -p BCN -e 12 -c 2 -a 34 -i 0 -k MAC -R 15.00 -D 0.00
r -t 3.003008031 -s 2 -d -1 -p BCN -e 12 -c 2 -a 34 -i 0 -k MAC
r -t 3.003008038 -s 1 -d -1 -p BCN -e 12 -c 2 -a 34 -i 0 -k MAC
n -t 3.013008031 -s 2 -S COLOR -i LightGrey -I black -c blue -o blue
n -t 3.013008038 -s 1 -S COLOR -i LightGrey -I black -c blue -o blue
+ -t 3.016640038 -s 1 -d -1 -p BCN -e 12 -c 2 -a 34 -i 0 -k MAC 
- -t 3.016640038 -s 1 -d -1 -p BCN -e 12 -c 2 -a 34 -i 0 -k MAC
h -t 3.016640038 -s 1 -d -1 -p BCN -e 12 -c 2 -a 34 -i 0 -k MAC -R 15.00 -D 0.00
d -t 3.017216075 -s 0 -d -1 -p BCN -e 12 -c 2 -a 34 -i 0 -k MAC
d -t 3.017216081 -s 2 -d -1 -p BCN -e 12 -c 2 -a 34 -i 0 -k MAC
n -t 3.023008031 -s 2 -S COLOR -i black -I LightGrey -c blue -o blue
n -t 3.023008038 -s 1 -S COLOR -i black -I LightGrey -c blue -o blue
+ -t 3.027040000 -s 3 -d -1 -p CM7 -e 8 -c 2 -a 34 -i 0 -k MAC 
- -t 3.027040000 -s 3 -d -1 -p CM7 -e 8 -c 2 -a 34 -i 0 -k MAC
h -t 3.027040000 -s 3 -d -1 -p CM7 -e 8 -c 2 -a 34 -i 0 -k MAC -R 15.00 -D 0.00
+ -t 3.034240031 -s 2 -d -1 -p BCN -e 12 -c 2 -a 34 -i 0 -k MAC 
- -t 3.034240031 -s 2 -d -1 -p BCN -e 12 -c 2 -a 34 -i 0 -k MAC
h -t 3.034240031 -s 2 -d -1 -p BCN -e 12 -c 2 -a 34 -i 0 -k MAC -R 15.00 -D 0.00
d -t 3.034816063 -s 0 -d -1 -p BCN -e 12 -c 2 -a 34 -i 0 -k MAC
d -t 3.034816075 -s 1 -d -1 -p BCN -e 12 -c 2 -a 34 -i 0 -k MAC
+ -t 3.125312000 -s 0 -d -1 -p BCN -e 12 -c 2 -a 34 -i 0 -k MAC 
- -t 3.125312000 -s 0 -d -1 -p BCN -e 12 -c 2 -a 34 -i 0 -k MAC
h -t 3.125312000 -s 0 -d -1 -p BCN -e 12 -c 2 -a 34 -i 0 -k MAC -R 15.00 -D 0.00
r -t 3.125888031 -s 2 -d -1 -p BCN -e 12 -c 2 -a 34 -i 0 -k MAC
r -t 3.125888038 -s 1 -d -1 -p BCN -e 12 -c 2 -a 34 -i 0 -k MAC
n -t 3.135888031 -s 2 -S COLOR -i LightGrey -I black -c blue -o blue
n -t 3.135888038 -s 1 -S COLOR -i LightGrey -I black -c blue -o blue
+ -t 3.139520038 -s 1 -d -1 -p BCN -e 12 -c 2 -a 34 -i 0 -k MAC 
- -t 3.139520038 -s 1 -d -1 -p BCN -e 12 -c 2 -a 34 -i 0 -k MAC
h -t 3.139520038 -s 1 -d -1 -p BCN -e 12 -c 2 -a 34 -i 0 -k MAC -R 15.00 -D 0.00
d -t 3.140096075 -s 0 -d -1 -p BCN -e 12 -c 2 -a 34 -i 0 -k MAC
d -t 3.140096081 -s 2 -d -1 -p BCN -e 12 -c 2 -a 34 -i 0 -k MAC
n -t 3.145888031 -s 2 -S COLOR -i black -I LightGrey -c blue -o blue
n -t 3.145888038 -s 1 -S COLOR -i black -I LightGrey -c blue -o blue
+ -t 3.157120031 -s 2 -d -1 -p BCN -e 12 -c 2 -a 34 -i 0 -k MAC 
- -t 3.157120031 -s 2 -d -1 -p BCN -e 12 -c 2 -a 34 -i 0 -k MAC
h -t 3.157120031 -s 2 -d -1 -p BCN -e 12 -c 2 -a 34 -i 0 -k MAC -R 15.00 -D 0.00
d -t 3.157696063 -s 0 -d -1 -p BCN -e 12 -c 2 -a 34 -i 0 -k MAC
d -t 3.157696075 -s 1 -d -1 -p BCN -e 12 -c 2 -a 34 -i 0 -k MAC
+ -t 3.248192000 -s 0 -d -1 -p BCN -e 12 -c 2 -a 34 -i 0 -k MAC 
- -t 3.248192000 -s 0 -d -1 -p BCN -e 12 -c 2 -a 34 -i 0 -k MAC
h -t 3.248192000 -s 0 -d -1 -p BCN -e 12 -c 2 -a 34 -i 0 -k MAC -R 15.00 -D 0.00
r -t 3.248768031 -s 2 -d -1 -p BCN -e 12 -c 2 -a 34 -i 0 -k MAC
r -t 3.248768038 -s 1 -d -1 -p BCN -e 12 -c 2 -a 34 -i 0 -k MAC
n -t 3.258768031 -s 2 -S COLOR -i LightGrey -I black -c blue -o blue
n -t 3.258768038 -s 1 -S COLOR -i LightGrey -I black -c blue -o blue
+ -t 3.262400038 -s 1 -d -1 -p BCN -e 12 -c 2 -a 34 -i 0 -k MAC 
- -t 3.262400038 -s 1 -d -1 -p BCN -e 12 -c 2 -a 34 -i 0 -k MAC
h -t 3.262400038 -s 1 -d -1 -p BCN -e 12 -c 2 -a 34 -i 0 -k MAC -R 15.00 -D 0.00
d -t 3.262976075 -s 0 -d -1 -p BCN -e 12 -c 2 -a 34 -i 0 -k MAC
d -t 3.262976081 -s 2 -d -1 -p BCN -e 12 -c 2 -a 34 -i 0 -k MAC
n -t 3.268768031 -s 2 -S COLOR -i black -I LightGrey -c blue -o blue
n -t 3.268768038 -s 1 -S COLOR -i black -I LightGrey -c blue -o blue
+ -t 3.280000031 -s 2 -d -1 -p BCN -e 12 -c 2 -a 34 -i 0 -k MAC 
- -t 3.280000031 -s 2 -d -1 -p BCN -e 12 -c 2 -a 34 -i 0 -k MAC
h -t 3.280000031 -s 2 -d -1 -p BCN -e 12 -c 2 -a 34 -i 0 -k MAC -R 15.00 -D 0.00
d -t 3.280576063 -s 0 -d -1 -p BCN -e 12 -c 2 -a 34 -i 0 -k MAC
d -t 3.280576075 -s 1 -d -1 -p BCN -e 12 -c 2 -a 34 -i 0 -k MAC
+ -t 3.289120000 -s 3 -d 1 -p ACRP -e 17 -c 2 -a 34 -i 0 -k MAC 
- -t 3.289120000 -s 3 -d 1 -p ACRP -e 17 -c 2 -a 34 -i 0 -k MAC
h -t 3.289120000 -s 3 -d 1 -p ACRP -e 17 -c 2 -a 34 -i 0 -k MAC
r -t 3.289856039 -s 1 -d 1 -p ACRP -e 17 -c 2 -a 34 -i 0 -k MAC
+ -t 3.290240038 -s 1 -d 3 -p ACK -e 5 -c 2 -a 34 -i 0 -k MAC 
- -t 3.290240038 -s 1 -d 3 -p ACK -e 5 -c 2 -a 34 -i 0 -k MAC
h -t 3.290240038 -s 1 -d 3 -p ACK -e 5 -c 2 -a 34 -i 0 -k MAC
r -t 3.290592077 -s 3 -d 3 -p ACK -e 5 -c 2 -a 34 -i 0 -k MAC
+ -t 3.371072000 -s 0 -d -1 -p BCN -e 12 -c 2 -a 34 -i 0 -k MAC 
- -t 3.371072000 -s 0 -d -1 -p BCN -e 12 -c 2 -a 34 -i 0 -k MAC
h -t 3.371072000 -s 0 -d -1 -p BCN -e 12 -c 2 -a 34 -i 0 -k MAC -R 15.00 -D 0.00
r -t 3.371648031 -s 2 -d -1 -p BCN -e 12 -c 2 -a 34 -i 0 -k MAC
r -t 3.371648038 -s 1 -d -1 -p BCN -e 12 -c 2 -a 34 -i 0 -k MAC
n -t 3.381648031 -s 2 -S COLOR -i LightGrey -I black -c blue -o blue
n -t 3.381648038 -s 1 -S COLOR -i LightGrey -I black -c blue -o blue
+ -t 3.385280038 -s 1 -d -1 -p BCN -e 20 -c 2 -a 34 -i 0 -k MAC 
- -t 3.385280038 -s 1 -d -1 -p BCN -e 20 -c 2 -a 34 -i 0 -k MAC
h -t 3.385280038 -s 1 -d -1 -p BCN -e 20 -c 2 -a 34 -i 0 -k MAC -R 15.00 -D 0.00
d -t 3.386112075 -s 0 -d -1 -p BCN -e 20 -c 2 -a 34 -i 0 -k MAC
d -t 3.386112081 -s 2 -d -1 -p BCN -e 20 -c 2 -a 34 -i 0 -k MAC
n -t 3.391648031 -s 2 -S COLOR -i black -I LightGrey -c blue -o blue
n -t 3.391648038 -s 1 -S COLOR -i black -I LightGrey -c blue -o blue
+ -t 3.402880031 -s 2 -d -1 -p BCN -e 12 -c 2 -a 34 -i 0 -k MAC 
- -t 3.402880031 -s 2 -d -1 -p BCN -e 12 -c 2 -a 34 -i 0 -k MAC
h -t 3.402880031 -s 2 -d -1 -p BCN -e 12 -c 2 -a 34 -i 0 -k MAC -R 15.00 -D 0.00
d -t 3.403456063 -s 0 -d -1 -p BCN -e 12 -c 2 -a 34 -i 0 -k MAC
d -t 3.403456075 -s 1 -d -1 -p BCN -e 12 -c 2 -a 34 -i 0 -k MAC
+ -t 3.493952000 -s 0 -d -1 -p BCN -e 12 -c 2 -a 34 -i 0 -k MAC 
- -t 3.493952000 -s 0 -d -1 -p BCN -e 12 -c 2 -a 34 -i 0 -k MAC
h -t 3.493952000 -s 0 -d -1 -p BCN -e 12 -c 2 -a 34 -i 0 -k MAC -R 15.00 -D 0.00
r -t 3.494528031 -s 2 -d -1 -p BCN -e 12 -c 2 -a 34 -i 0 -k MAC
r -t 3.494528038 -s 1 -d -1 -p BCN -e 12 -c 2 -a 34 -i 0 -k MAC
+ -t 3.502560000 -s 4 -d -1 -p CM7 -e 8 -c 2 -a 34 -i 0 -k MAC 
- -t 3.502560000 -s 4 -d -1 -p CM7 -e 8 -c 2 -a 34 -i 0 -k MAC
h -t 3.502560000 -s 4 -d -1 -p CM7 -e 8 -c 2 -a 34 -i 0 -k MAC -R 15.00 -D 0.00
r -t 3.503008033 -s 2 -d -1 -p CM7 -e 8 -c 2 -a 34 -i 0 -k MAC
r -t 3.503008035 -s 1 -d -1 -p CM7 -e 8 -c 2 -a 34 -i 0 -k MAC
r -t 3.503008037 -s 5 -d -1 -p CM7 -e 8 -c 2 -a 34 -i 0 -k MAC
r -t 3.503008039 -s 9 -d -1 -p CM7 -e 8 -c 2 -a 34 -i 0 -k MAC
r -t 3.503008040 -s 8 -d -1 -p CM7 -e 8 -c 2 -a 34 -i 0 -k MAC
n -t 3.504528031 -s 2 -S COLOR -i LightGrey -I black -c blue -o blue
n -t 3.504528038 -s 1 -S COLOR -i LightGrey -I black -c blue -o blue
+ -t 3.508160038 -s 1 -d -1 -p BCN -e 20 -c 2 -a 34 -i 0 -k MAC 
- -t 3.508160038 -s 1 -d -1 -p BCN -e 20 -c 2 -a 34 -i 0 -k MAC
h -t 3.508160038 -s 1 -d -1 -p BCN -e 20 -c 2 -a 34 -i 0 -k MAC -R 15.00 -D 0.00
d -t 3.508992075 -s 0 -d -1 -p BCN -e 20 -c 2 -a 34 -i 0 -k MAC
d -t 3.508992081 -s 2 -d -1 -p BCN -e 20 -c 2 -a 34 -i 0 -k MAC
n -t 3.514528031 -s 2 -S COLOR -i black -I LightGrey -c blue -o blue
n -t 3.514528038 -s 1 -S COLOR -i black -I LightGrey -c blue -o blue
+ -t 3.525760031 -s 2 -d -1 -p BCN -e 12 -c 2 -a 34 -i 0 -k MAC 
- -t 3.525760031 -s 2 -d -1 -p BCN -e 12 -c 2 -a 34 -i 0 -k MAC
h -t 3.525760031 -s 2 -d -1 -p BCN -e 12 -c 2 -a 34 -i 0 -k MAC -R 15.00 -D 0.00
d -t 3.526336063 -s 0 -d -1 -p BCN -e 12 -c 2 -a 34 -i 0 -k MAC
d -t 3.526336075 -s 1 -d -1 -p BCN -e 12 -c 2 -a 34 -i 0 -k MAC
+ -t 3.616832000 -s 0 -d -1 -p BCN -e 12 -c 2 -a 34 -i 0 -k MAC 
- -t 3.616832000 -s 0 -d -1 -p BCN -e 12 -c 2 -a 34 -i 0 -k MAC
h -t 3.616832000 -s 0 -d -1 -p BCN -e 12 -c 2 -a 34 -i 0 -k MAC -R 15.00 -D 0.00
r -t 3.617408031 -s 2 -d -1 -p BCN -e 12 -c 2 -a 34 -i 0 -k MAC
r -t 3.617408038 -s 1 -d -1 -p BCN -e 12 -c 2 -a 34 -i 0 -k MAC
n -t 3.627408031 -s 2 -S COLOR -i LightGrey -I black -c blue -o blue
n -t 3.627408038 -s 1 -S COLOR -i LightGrey -I black -c blue -o blue
+ -t 3.631040038 -s 1 -d -1 -p BCN -e 20 -c 2 -a 34 -i 0 -k MAC 
- -t 3.631040038 -s 1 -d -1 -p BCN -e 20 -c 2 -a 34 -i 0 -k MAC
h -t 3.631040038 -s 1 -d -1 -p BCN -e 20 -c 2 -a 34 -i 0 -k MAC -R 15.00 -D 0.00
d -t 3.631872075 -s 0 -d -1 -p BCN -e 20 -c 2 -a 34 -i 0 -k MAC
d -t 3.631872081 -s 2 -d -1 -p BCN -e 20 -c 2 -a 34 -i 0 -k MAC
n -t 3.637408031 -s 2 -S COLOR -i black -I LightGrey -c blue -o blue
n -t 3.637408038 -s 1 -S COLOR -i black -I LightGrey -c blue -o blue
+ -t 3.648640031 -s 2 -d -1 -p BCN -e 12 -c 2 -a 34 -i 0 -k MAC 
- -t 3.648640031 -s 2 -d -1 -p BCN -e 12 -c 2 -a 34 -i 0 -k MAC
h -t 3.648640031 -s 2 -d -1 -p BCN -e 12 -c 2 -a 34 -i 0 -k MAC -R 15.00 -D 0.00
d -t 3.649216063 -s 0 -d -1 -p BCN -e 12 -c 2 -a 34 -i 0 -k MAC
d -t 3.649216075 -s 1 -d -1 -p BCN -e 12 -c 2 -a 34 -i 0 -k MAC
+ -t 3.739712000 -s 0 -d -1 -p BCN -e 12 -c 2 -a 34 -i 0 -k MAC 
- -t 3.739712000 -s 0 -d -1 -p BCN -e 12 -c 2 -a 34 -i 0 -k MAC
h -t 3.739712000 -s 0 -d -1 -p BCN -e 12 -c 2 -a 34 -i 0 -k MAC -R 15.00 -D 0.00
r -t 3.740288031 -s 2 -d -1 -p BCN -e 12 -c 2 -a 34 -i 0 -k MAC
r -t 3.740288038 -s 1 -d -1 -p BCN -e 12 -c 2 -a 34 -i 0 -k MAC
n -t 3.750288031 -s 2 -S COLOR -i LightGrey -I black -c blue -o blue
n -t 3.750288038 -s 1 -S COLOR -i LightGrey -I black -c blue -o blue
+ -t 3.753920038 -s 1 -d -1 -p BCN -e 20 -c 2 -a 34 -i 0 -k MAC 
- -t 3.753920038 -s 1 -d -1 -p BCN -e 20 -c 2 -a 34 -i 0 -k MAC
h -t 3.753920038 -s 1 -d -1 -p BCN -e 20 -c 2 -a 34 -i 0 -k MAC -R 15.00 -D 0.00
d -t 3.754752075 -s 0 -d -1 -p BCN -e 20 -c 2 -a 34 -i 0 -k MAC
d -t 3.754752081 -s 2 -d -1 -p BCN -e 20 -c 2 -a 34 -i 0 -k MAC
n -t 3.760288031 -s 2 -S COLOR -i black -I LightGrey -c blue -o blue
n -t 3.760288038 -s 1 -S COLOR -i black -I LightGrey -c blue -o blue
+ -t 3.764960000 -s 4 -d -1 -p CM7 -e 8 -c 2 -a 34 -i 0 -k MAC 
- -t 3.764960000 -s 4 -d -1 -p CM7 -e 8 -c 2 -a 34 -i 0 -k MAC
h -t 3.764960000 -s 4 -d -1 -p CM7 -e 8 -c 2 -a 34 -i 0 -k MAC -R 15.00 -D 0.00
+ -t 3.771520031 -s 2 -d -1 -p BCN -e 12 -c 2 -a 34 -i 0 -k MAC 
- -t 3.771520031 -s 2 -d -1 -p BCN -e 12 -c 2 -a 34 -i 0 -k MAC
h -t 3.771520031 -s 2 -d -1 -p BCN -e 12 -c 2 -a 34 -i 0 -k MAC -R 15.00 -D 0.00
d -t 3.772096063 -s 0 -d -1 -p BCN -e 12 -c 2 -a 34 -i 0 -k MAC
d -t 3.772096075 -s 1 -d -1 -p BCN -e 12 -c 2 -a 34 -i 0 -k MAC
+ -t 3.782112077 -s 3 -d 1 -p CM4 -e 16 -c 2 -a 34 -i 0 -k MAC 
- -t 3.782112077 -s 3 -d 1 -p CM4 -e 16 -c 2 -a 34 -i 0 -k MAC
h -t 3.782112077 -s 3 -d 1 -p CM4 -e 16 -c 2 -a 34 -i 0 -k MAC
r -t 3.782816116 -s 1 -d 1 -p CM4 -e 16 -c 2 -a 34 -i 0 -k MAC
+ -t 3.783040038 -s 1 -d 3 -p ACK -e 5 -c 2 -a 34 -i 0 -k MAC 
- -t 3.783040038 -s 1 -d 3 -p ACK -e 5 -c 2 -a 34 -i 0 -k MAC
h -t 3.783040038 -s 1 -d 3 -p ACK -e 5 -c 2 -a 34 -i 0 -k MAC
r -t 3.783392077 -s 3 -d 3 -p ACK -e 5 -c 2 -a 34 -i 0 -k MAC
+ -t 3.783680038 -s 1 -d 3 -p CM2 -e 25 -c 2 -a 34 -i 0 -k MAC 
- -t 3.783680038 -s 1 -d 3 -p CM2 -e 25 -c 2 -a 34 -i 0 -k MAC
h -t 3.783680038 -s 1 -d 3 -p CM2 -e 25 -c 2 -a 34 -i 0 -k MAC
r -t 3.784672077 -s 3 -d 3 -p CM2 -e 25 -c 2 -a 34 -i 0 -k MAC
+ -t 3.784864077 -s 3 -d 1 -p ACK -e 5 -c 2 -a 34 -i 0 -k MAC 
- -t 3.784864077 -s 3 -d 1 -p ACK -e 5 -c 2 -a 34 -i 0 -k MAC
h -t 3.784864077 -s 3 -d 1 -p ACK -e 5 -c 2 -a 34 -i 0 -k MAC
r -t 3.785216116 -s 1 -d 1 -p ACK -e 5 -c 2 -a 34 -i 0 -k MAC
n -t 3.785856078 -s 3 -S COLOR -c blue -o black
n -t 3.785856078 -s 3 -S DLABEL -l [1] -L ""
+ -t 3.786048077 -s 3 -d -1 -p BCN -e 12 -c 2 -a 34 -i 0 -k MAC 
- -t 3.786048077 -s 3 -d -1 -p BCN -e 12 -c 2 -a 34 -i 0 -k MAC
h -t 3.786048077 -s 3 -d -1 -p BCN -e 12 -c 2 -a 34 -i 0 -k MAC -R 15.00 -D 0.00
d -t 3.786624116 -s 1 -d -1 -p BCN -e 12 -c 2 -a 34 -i 0 -k MAC
n -t 3.815857078 -s 3 -S COLOR -c blue -o blue
+ -t 3.862592000 -s 0 -d -1 -p BCN -e 12 -c 2 -a 34 -i 0 -k MAC 
- -t 3.862592000 -s 0 -d -1 -p BCN -e 12 -c 2 -a 34 -i 0 -k MAC
h -t 3.862592000 -s 0 -d -1 -p BCN -e 12 -c 2 -a 34 -i 0 -k MAC -R 15.00 -D 0.00
r -t 3.863168031 -s 2 -d -1 -p BCN -e 12 -c 2 -a 34 -i 0 -k MAC
r -t 3.863168038 -s 1 -d -1 -p BCN -e 12 -c 2 -a 34 -i 0 -k MAC
n -t 3.873168031 -s 2 -S COLOR -i LightGrey -I black -c blue -o blue
n -t 3.873168038 -s 1 -S COLOR -i LightGrey -I black -c blue -o blue
+ -t 3.876800038 -s 1 -d -1 -p BCN -e 12 -c 2 -a 34 -i 0 -k MAC 
- -t 3.876800038 -s 1 -d -1 -p BCN -e 12 -c 2 -a 34 -i 0 -k MAC
h -t 3.876800038 -s 1 -d -1 -p BCN -e 12 -c 2 -a 34 -i 0 -k MAC -R 15.00 -D 0.00
d -t 3.877376075 -s 0 -d -1 -p BCN -e 12 -c 2 -a 34 -i 0 -k MAC