V -t * -v 1.0a5 -a 0
A -t * -n 1 -p 0 -o 0x7fffffff -c 30 -a 1
A -t * -h 1 -m 1073741823 -s 0
n -t * -a 0 -s 0 -S UP -v circle -c black -i black
n -t * -a 1 -s 1 -S UP -v circle -c black -i black
n -t * -a 2 -s 2 -S UP -v circle -c black -i black
n -t * -a 3 -s 3 -S UP -v circle -c black -i black
l -t * -s 0 -d 2 -S UP -r 5000000 -D 0.002 -c black
l -t * -s 1 -d 2 -S UP -r 5000000 -D 0.002 -c black
l -t * -s 2 -d 3 -S UP -r 1500000 -D 0.01 -c black
+ -t 1.1 -s 1 -d 2 -p tcp -e 40 -c 1 -i 0 -a 1 -x {1.0 3.1 0 ------- null}
- -t 1.1 -s 1 -d 2 -p tcp -e 40 -c 1 -i 0 -a 1 -x {1.0 3.1 0 ------- null}
h -t 1.1 -s 1 -d 2 -p tcp -e 40 -c 1 -i 0 -a 1 -x {1.0 3.1 -1 ------- null}
r -t 1.102064 -s 1 -d 2 -p tcp -e 40 -c 1 -i 0 -a 1 -x {1.0 3.1 0 ------- null}
+ -t 1.102064 -s 2 -d 3 -p tcp -e 40 -c 1 -i 0 -a 1 -x {1.0 3.1 0 ------- null}
- -t 1.102064 -s 2 -d 3 -p tcp -e 40 -c 1 -i 0 -a 1 -x {1.0 3.1 0 ------- null}
h -t 1.102064 -s 2 -d 3 -p tcp -e 40 -c 1 -i 0 -a 1 -x {1.0 3.1 -1 ------- null}
r -t 1.11227733333333 -s 2 -d 3 -p tcp -e 40 -c 1 -i 0 -a 1 -x {1.0 3.1 0 ------- null}
+ -t 1.11227733333333 -s 3 -d 2 -p ack -e 40 -c 1 -i 1 -a 1 -x {3.1 1.0 0 ------- null}
- -t 1.11227733333333 -s 3 -d 2 -p ack -e 40 -c 1 -i 1 -a 1 -x {3.1 1.0 0 ------- null}
h -t 1.11227733333333 -s 3 -d 2 -p ack -e 40 -c 1 -i 1 -a 1 -x {3.1 1.0 -1 ------- null}
r -t 1.12249066666667 -s 3 -d 2 -p ack -e 40 -c 1 -i 1 -a 1 -x {3.1 1.0 0 ------- null}
+ -t 1.12249066666667 -s 2 -d 1 -p ack -e 40 -c 1 -i 1 -a 1 -x {3.1 1.0 0 ------- null}
- -t 1.12249066666667 -s 2 -d 1 -p ack -e 40 -c 1 -i 1 -a 1 -x {3.1 1.0 0 ------- null}
h -t 1.12249066666667 -s 2 -d 1 -p ack -e 40 -c 1 -i 1 -a 1 -x {3.1 1.0 -1 ------- null}
r -t 1.12455466666667 -s 2 -d 1 -p ack -e 40 -c 1 -i 1 -a 1 -x {3.1 1.0 0 ------- null}
+ -t 1.12455466666667 -s 1 -d 2 -p tcp -e 1040 -c 1 -i 2 -a 1 -x {1.0 3.1 1 ------- null}
- -t 1.12455466666667 -s 1 -d 2 -p tcp -e 1040 -c 1 -i 2 -a 1 -x {1.0 3.1 1 ------- null}
h -t 1.12455466666667 -s 1 -d 2 -p tcp -e 1040 -c 1 -i 2 -a 1 -x {1.0 3.1 -1 ------- null}
+ -t 1.12455466666667 -s 1 -d 2 -p tcp -e 1040 -c 1 -i 3 -a 1 -x {1.0 3.1 2 ------- null}
- -t 1.12621866666667 -s 1 -d 2 -p tcp -e 1040 -c 1 -i 3 -a 1 -x {1.0 3.1 2 ------- null}
h -t 1.12621866666667 -s 1 -d 2 -p tcp -e 1040 -c 1 -i 3 -a 1 -x {1.0 3.1 -1 ------- null}
r -t 1.12821866666667 -s 1 -d 2 -p tcp -e 1040 -c 1 -i 2 -a 1 -x {1.0 3.1 1 ------- null}
+ -t 1.12821866666667 -s 2 -d 3 -p tcp -e 1040 -c 1 -i 2 -a 1 -x {1.0 3.1 1 ------- null}
- -t 1.12821866666667 -s 2 -d 3 -p tcp -e 1040 -c 1 -i 2 -a 1 -x {1.0 3.1 1 ------- null}
h -t 1.12821866666667 -s 2 -d 3 -p tcp -e 1040 -c 1 -i 2 -a 1 -x {1.0 3.1 -1 ------- null}
r -t 1.12988266666667 -s 1 -d 2 -p tcp -e 1040 -c 1 -i 3 -a 1 -x {1.0 3.1 2 ------- null}
+ -t 1.12988266666667 -s 2 -d 3 -p tcp -e 1040 -c 1 -i 3 -a 1 -x {1.0 3.1 2 ------- null}
- -t 1.13376533333333 -s 2 -d 3 -p tcp -e 1040 -c 1 -i 3 -a 1 -x {1.0 3.1 2 ------- null}
h -t 1.13376533333333 -s 2 -d 3 -p tcp -e 1040 -c 1 -i 3 -a 1 -x {1.0 3.1 -1 ------- null}
r -t 1.14376533333333 -s 2 -d 3 -p tcp -e 1040 -c 1 -i 2 -a 1 -x {1.0 3.1 1 ------- null}
+ -t 1.14376533333333 -s 3 -d 2 -p ack -e 40 -c 1 -i 4 -a 1 -x {3.1 1.0 1 ------- null}
- -t 1.14376533333333 -s 3 -d 2 -p ack -e 40 -c 1 -i 4 -a 1 -x {3.1 1.0 1 ------- null}
h -t 1.14376533333333 -s 3 -d 2 -p ack -e 40 -c 1 -i 4 -a 1 -x {3.1 1.0 -1 ------- null}
r -t 1.149312 -s 2 -d 3 -p tcp -e 1040 -c 1 -i 3 -a 1 -x {1.0 3.1 2 ------- null}
+ -t 1.149312 -s 3 -d 2 -p ack -e 40 -c 1 -i 5 -a 1 -x {3.1 1.0 2 ------- null}
- -t 1.149312 -s 3 -d 2 -p ack -e 40 -c 1 -i 5 -a 1 -x {3.1 1.0 2 ------- null}
h -t 1.149312 -s 3 -d 2 -p ack -e 40 -c 1 -i 5 -a 1 -x {3.1 1.0 -1 ------- null}
r -t 1.15397866666667 -s 3 -d 2 -p ack -e 40 -c 1 -i 4 -a 1 -x {3.1 1.0 1 ------- null}
+ -t 1.15397866666667 -s 2 -d 1 -p ack -e 40 -c 1 -i 4 -a 1 -x {3.1 1.0 1 ------- null}
- -t 1.15397866666667 -s 2 -d 1 -p ack -e 40 -c 1 -i 4 -a 1 -x {3.1 1.0 1 ------- null}
h -t 1.15397866666667 -s 2 -d 1 -p ack -e 40 -c 1 -i 4 -a 1 -x {3.1 1.0 -1 ------- null}
r -t 1.15604266666667 -s 2 -d 1 -p ack -e 40 -c 1 -i 4 -a 1 -x {3.1 1.0 1 ------- null}
+ -t 1.15604266666667 -s 1 -d 2 -p tcp -e 1040 -c 1 -i 6 -a 1 -x {1.0 3.1 3 ------- null}
- -t 1.15604266666667 -s 1 -d 2 -p tcp -e 1040 -c 1 -i 6 -a 1 -x {1.0 3.1 3 ------- null}
h -t 1.15604266666667 -s 1 -d 2 -p tcp -e 1040 -c 1 -i 6 -a 1 -x {1.0 3.1 -1 ------- null}
+ -t 1.15604266666667 -s 1 -d 2 -p tcp -e 1040 -c 1 -i 7 -a 1 -x {1.0 3.1 4 ------- null}
- -t 1.15770666666667 -s 1 -d 2 -p tcp -e 1040 -c 1 -i 7 -a 1 -x {1.0 3.1 4 ------- null}
h -t 1.15770666666667 -s 1 -d 2 -p tcp -e 1040 -c 1 -i 7 -a 1 -x {1.0 3.1 -1 ------- null}
r -t 1.15952533333333 -s 3 -d 2 -p ack -e 40 -c 1 -i 5 -a 1 -x {3.1 1.0 2 ------- null}
+ -t 1.15952533333333 -s 2 -d 1 -p ack -e 40 -c 1 -i 5 -a 1 -x {3.1 1.0 2 ------- null}
- -t 1.15952533333333 -s 2 -d 1 -p ack -e 40 -c 1 -i 5 -a 1 -x {3.1 1.0 2 ------- null}
h -t 1.15952533333333 -s 2 -d 1 -p ack -e 40 -c 1 -i 5 -a 1 -x {3.1 1.0 -1 ------- null}
r -t 1.15970666666667 -s 1 -d 2 -p tcp -e 1040 -c 1 -i 6 -a 1 -x {1.0 3.1 3 ------- null}
+ -t 1.15970666666667 -s 2 -d 3 -p tcp -e 1040 -c 1 -i 6 -a 1 -x {1.0 3.1 3 ------- null}
- -t 1.15970666666667 -s 2 -d 3 -p tcp -e 1040 -c 1 -i 6 -a 1 -x {1.0 3.1 3 ------- null}
h -t 1.15970666666667 -s 2 -d 3 -p tcp -e 1040 -c 1 -i 6 -a 1 -x {1.0 3.1 -1 ------- null}
r -t 1.16137066666667 -s 1 -d 2 -p tcp -e 1040 -c 1 -i 7 -a 1 -x {1.0 3.1 4 ------- null}
+ -t 1.16137066666667 -s 2 -d 3 -p tcp -e 1040 -c 1 -i 7 -a 1 -x {1.0 3.1 4 ------- null}
r -t 1.16158933333333 -s 2 -d 1 -p ack -e 40 -c 1 -i 5 -a 1 -x {3.1 1.0 2 ------- null}
+ -t 1.16158933333333 -s 1 -d 2 -p tcp -e 1040 -c 1 -i 8 -a 1 -x {1.0 3.1 5 ------- null}
- -t 1.16158933333333 -s 1 -d 2 -p tcp -e 1040 -c 1 -i 8 -a 1 -x {1.0 3.1 5 ------- null}
h -t 1.16158933333333 -s 1 -d 2 -p tcp -e 1040 -c 1 -i 8 -a 1 -x {1.0 3.1 -1 ------- null}
+ -t 1.16158933333333 -s 1 -d 2 -p tcp -e 1040 -c 1 -i 9 -a 1 -x {1.0 3.1 6 ------- null}
- -t 1.16325333333333 -s 1 -d 2 -p tcp -e 1040 -c 1 -i 9 -a 1 -x {1.0 3.1 6 ------- null}
h -t 1.16325333333333 -s 1 -d 2 -p tcp -e 1040 -c 1 -i 9 -a 1 -x {1.0 3.1 -1 ------- null}
- -t 1.16525333333333 -s 2 -d 3 -p tcp -e 1040 -c 1 -i 7 -a 1 -x {1.0 3.1 4 ------- null}
h -t 1.16525333333333 -s 2 -d 3 -p tcp -e 1040 -c 1 -i 7 -a 1 -x {1.0 3.1 -1 ------- null}
r -t 1.16525333333333 -s 1 -d 2 -p tcp -e 1040 -c 1 -i 8 -a 1 -x {1.0 3.1 5 ------- null}
+ -t 1.16525333333333 -s 2 -d 3 -p tcp -e 1040 -c 1 -i 8 -a 1 -x {1.0 3.1 5 ------- null}
r -t 1.16691733333333 -s 1 -d 2 -p tcp -e 1040 -c 1 -i 9 -a 1 -x {1.0 3.1 6 ------- null}
+ -t 1.16691733333333 -s 2 -d 3 -p tcp -e 1040 -c 1 -i 9 -a 1 -x {1.0 3.1 6 ------- null}
- -t 1.1708 -s 2 -d 3 -p tcp -e 1040 -c 1 -i 8 -a 1 -x {1.0 3.1 5 ------- null}
h -t 1.1708 -s 2 -d 3 -p tcp -e 1040 -c 1 -i 8 -a 1 -x {1.0 3.1 -1 ------- null}
r -t 1.17525333333333 -s 2 -d 3 -p tcp -e 1040 -c 1 -i 6 -a 1 -x {1.0 3.1 3 ------- null}
+ -t 1.17525333333333 -s 3 -d 2 -p ack -e 40 -c 1 -i 10 -a 1 -x {3.1 1.0 3 ------- null}
- -t 1.17525333333333 -s 3 -d 2 -p ack -e 40 -c 1 -i 10 -a 1 -x {3.1 1.0 3 ------- null}
h -t 1.17525333333333 -s 3 -d 2 -p ack -e 40 -c 1 -i 10 -a 1 -x {3.1 1.0 -1 ------- null}
- -t 1.17634666666667 -s 2 -d 3 -p tcp -e 1040 -c 1 -i 9 -a 1 -x {1.0 3.1 6 ------- null}
h -t 1.17634666666667 -s 2 -d 3 -p tcp -e 1040 -c 1 -i 9 -a 1 -x {1.0 3.1 -1 ------- null}
r -t 1.1808 -s 2 -d 3 -p tcp -e 1040 -c 1 -i 7 -a 1 -x {1.0 3.1 4 ------- null}
+ -t 1.1808 -s 3 -d 2 -p ack -e 40 -c 1 -i 11 -a 1 -x {3.1 1.0 4 ------- null}
- -t 1.1808 -s 3 -d 2 -p ack -e 40 -c 1 -i 11 -a 1 -x {3.1 1.0 4 ------- null}
h -t 1.1808 -s 3 -d 2 -p ack -e 40 -c 1 -i 11 -a 1 -x {3.1 1.0 -1 ------- null}
r -t 1.18546666666667 -s 3 -d 2 -p ack -e 40 -c 1 -i 10 -a 1 -x {3.1 1.0 3 ------- null}
+ -t 1.18546666666667 -s 2 -d 1 -p ack -e 40 -c 1 -i 10 -a 1 -x {3.1 1.0 3 ------- null}
- -t 1.18546666666667 -s 2 -d 1 -p ack -e 40 -c 1 -i 10 -a 1 -x {3.1 1.0 3 ------- null}
h -t 1.18546666666667 -s 2 -d 1 -p ack -e 40 -c 1 -i 10 -a 1 -x {3.1 1.0 -1 ------- null}
r -t 1.18634666666667 -s 2 -d 3 -p tcp -e 1040 -c 1 -i 8 -a 1 -x {1.0 3.1 5 ------- null}
+ -t 1.18634666666667 -s 3 -d 2 -p ack -e 40 -c 1 -i 12 -a 1 -x {3.1 1.0 5 ------- null}
- -t 1.18634666666667 -s 3 -d 2 -p ack -e 40 -c 1 -i 12 -a 1 -x {3.1 1.0 5 ------- null}
h -t 1.18634666666667 -s 3 -d 2 -p ack -e 40 -c 1 -i 12 -a 1 -x {3.1 1.0 -1 ------- null}
r -t 1.18753066666667 -s 2 -d 1 -p ack -e 40 -c 1 -i 10 -a 1 -x {3.1 1.0 3 ------- null}
+ -t 1.18753066666667 -s 1 -d 2 -p tcp -e 1040 -c 1 -i 13 -a 1 -x {1.0 3.1 7 ------- null}
- -t 1.18753066666667 -s 1 -d 2 -p tcp -e 1040 -c 1 -i 13 -a 1 -x {1.0 3.1 7 ------- null}
h -t 1.18753066666667 -s 1 -d 2 -p tcp -e 1040 -c 1 -i 13 -a 1 -x {1.0 3.1 -1 ------- null}
+ -t 1.18753066666667 -s 1 -d 2 -p tcp -e 1040 -c 1 -i 14 -a 1 -x {1.0 3.1 8 ------- null}
- -t 1.18919466666667 -s 1 -d 2 -p tcp -e 1040 -c 1 -i 14 -a 1 -x {1.0 3.1 8 ------- null}
h -t 1.18919466666667 -s 1 -d 2 -p tcp -e 1040 -c 1 -i 14 -a 1 -x {1.0 3.1 -1 ------- null}
r -t 1.19101333333333 -s 3 -d 2 -p ack -e 40 -c 1 -i 11 -a 1 -x {3.1 1.0 4 ------- null}
+ -t 1.19101333333333 -s 2 -d 1 -p ack -e 40 -c 1 -i 11 -a 1 -x {3.1 1.0 4 ------- null}
- -t 1.19101333333333 -s 2 -d 1 -p ack -e 40 -c 1 -i 11 -a 1 -x {3.1 1.0 4 ------- null}
h -t 1.19101333333333 -s 2 -d 1 -p ack -e 40 -c 1 -i 11 -a 1 -x {3.1 1.0 -1 ------- null}
r -t 1.19119466666667 -s 1 -d 2 -p tcp -e 1040 -c 1 -i 13 -a 1 -x {1.0 3.1 7 ------- null}
+ -t 1.19119466666667 -s 2 -d 3 -p tcp -e 1040 -c 1 -i 13 -a 1 -x {1.0 3.1 7 ------- null}
- -t 1.19119466666667 -s 2 -d 3 -p tcp -e 1040 -c 1 -i 13 -a 1 -x {1.0 3.1 7 ------- null}
h -t 1.19119466666667 -s 2 -d 3 -p tcp -e 1040 -c 1 -i 13 -a 1 -x {1.0 3.1 -1 ------- null}
r -t 1.19189333333333 -s 2 -d 3 -p tcp -e 1040 -c 1 -i 9 -a 1 -x {1.0 3.1 6 ------- null}
+ -t 1.19189333333333 -s 3 -d 2 -p ack -e 40 -c 1 -i 15 -a 1 -x {3.1 1.0 6 ------- null}
- -t 1.19189333333333 -s 3 -d 2 -p ack -e 40 -c 1 -i 15 -a 1 -x {3.1 1.0 6 ------- null}
h -t 1.19189333333333 -s 3 -d 2 -p ack -e 40 -c 1 -i 15 -a 1 -x {3.1 1.0 -1 ------- null}
r -t 1.19285866666667 -s 1 -d 2 -p tcp -e 1040 -c 1 -i 14 -a 1 -x {1.0 3.1 8 ------- null}
+ -t 1.19285866666667 -s 2 -d 3 -p tcp -e 1040 -c 1 -i 14 -a 1 -x {1.0 3.1 8 ------- null}
r -t 1.19307733333333 -s 2 -d 1 -p ack -e 40 -c 1 -i 11 -a 1 -x {3.1 1.0 4 ------- null}
+ -t 1.19307733333333 -s 1 -d 2 -p tcp -e 1040 -c 1 -i 16 -a 1 -x {1.0 3.1 9 ------- null}
- -t 1.19307733333333 -s 1 -d 2 -p tcp -e 1040 -c 1 -i 16 -a 1 -x {1.0 3.1 9 ------- null}
h -t 1.19307733333333 -s 1 -d 2 -p tcp -e 1040 -c 1 -i 16 -a 1 -x {1.0 3.1 -1 ------- null}
+ -t 1.19307733333333 -s 1 -d 2 -p tcp -e 1040 -c 1 -i 17 -a 1 -x {1.0 3.1 10 ------- null}
- -t 1.19474133333333 -s 1 -d 2 -p tcp -e 1040 -c 1 -i 17 -a 1 -x {1.0 3.1 10 ------- null}
h -t 1.19474133333333 -s 1 -d 2 -p tcp -e 1040 -c 1 -i 17 -a 1 -x {1.0 3.1 -1 ------- null}
r -t 1.19656 -s 3 -d 2 -p ack -e 40 -c 1 -i 12 -a 1 -x {3.1 1.0 5 ------- null}
+ -t 1.19656 -s 2 -d 1 -p ack -e 40 -c 1 -i 12 -a 1 -x {3.1 1.0 5 ------- null}
- -t 1.19656 -s 2 -d 1 -p ack -e 40 -c 1 -i 12 -a 1 -x {3.1 1.0 5 ------- null}
h -t 1.19656 -s 2 -d 1 -p ack -e 40 -c 1 -i 12 -a 1 -x {3.1 1.0 -1 ------- null}
- -t 1.19674133333333 -s 2 -d 3 -p tcp -e 1040 -c 1 -i 14 -a 1 -x {1.0 3.1 8 ------- null}
h -t 1.19674133333333 -s 2 -d 3 -p tcp -e 1040 -c 1 -i 14 -a 1 -x {1.0 3.1 -1 ------- null}
r -t 1.19674133333333 -s 1 -d 2 -p tcp -e 1040 -c 1 -i 16 -a 1 -x {1.0 3.1 9 ------- null}
+ -t 1.19674133333333 -s 2 -d 3 -p tcp -e 1040 -c 1 -i 16 -a 1 -x {1.0 3.1 9 ------- null}
r -t 1.19840533333333 -s 1 -d 2 -p tcp -e 1040 -c 1 -i 17 -a 1 -x {1.0 3.1 10 ------- null}
+ -t 1.19840533333333 -s 2 -d 3 -p tcp -e 1040 -c 1 -i 17 -a 1 -x {1.0 3.1 10 ------- null}
r -t 1.198624 -s 2 -d 1 -p ack -e 40 -c 1 -i 12 -a 1 -x {3.1 1.0 5 ------- null}
+ -t 1.198624 -s 1 -d 2 -p tcp -e 1040 -c 1 -i 18 -a 1 -x {1.0 3.1 11 ------- null}
- -t 1.198624 -s 1 -d 2 -p tcp -e 1040 -c 1 -i 18 -a 1 -x {1.0 3.1 11 ------- null}
h -t 1.198624 -s 1 -d 2 -p tcp -e 1040 -c 1 -i 18 -a 1 -x {1.0 3.1 -1 ------- null}
+ -t 1.198624 -s 1 -d 2 -p tcp -e 1040 -c 1 -i 19 -a 1 -x {1.0 3.1 12 ------- null}
- -t 1.200288 -s 1 -d 2 -p tcp -e 1040 -c 1 -i 19 -a 1 -x {1.0 3.1 12 ------- null}
h -t 1.200288 -s 1 -d 2 -p tcp -e 1040 -c 1 -i 19 -a 1 -x {1.0 3.1 -1 ------- null}
r -t 1.20210666666667 -s 3 -d 2 -p ack -e 40 -c 1 -i 15 -a 1 -x {3.1 1.0 6 ------- null}
+ -t 1.20210666666667 -s 2 -d 1 -p ack -e 40 -c 1 -i 15 -a 1 -x {3.1 1.0 6 ------- null}
- -t 1.20210666666667 -s 2 -d 1 -p ack -e 40 -c 1 -i 15 -a 1 -x {3.1 1.0 6 ------- null}
h -t 1.20210666666667 -s 2 -d 1 -p ack -e 40 -c 1 -i 15 -a 1 -x {3.1 1.0 -1 ------- null}
- -t 1.202288 -s 2 -d 3 -p tcp -e 1040 -c 1 -i 16 -a 1 -x {1.0 3.1 9 ------- null}
h -t 1.202288 -s 2 -d 3 -p tcp -e 1040 -c 1 -i 16 -a 1 -x {1.0 3.1 -1 ------- null}
r -t 1.202288 -s 1 -d 2 -p tcp -e 1040 -c 1 -i 18 -a 1 -x {1.0 3.1 11 ------- null}
+ -t 1.202288 -s 2 -d 3 -p tcp -e 1040 -c 1 -i 18 -a 1 -x {1.0 3.1 11 ------- null}
r -t 1.203952 -s 1 -d 2 -p tcp -e 1040 -c 1 -i 19 -a 1 -x {1.0 3.1 12 ------- null}
+ -t 1.203952 -s 2 -d 3 -p tcp -e 1040 -c 1 -i 19 -a 1 -x {1.0 3.1 12 ------- null}
r -t 1.20417066666667 -s 2 -d 1 -p ack -e 40 -c 1 -i 15 -a 1 -x {3.1 1.0 6 ------- null}
+ -t 1.20417066666667 -s 1 -d 2 -p tcp -e 1040 -c 1 -i 20 -a 1 -x {1.0 3.1 13 ------- null}
- -t 1.20417066666667 -s 1 -d 2 -p tcp -e 1040 -c 1 -i 20 -a 1 -x {1.0 3.1 13 ------- null}
h -t 1.20417066666667 -s 1 -d 2 -p tcp -e 1040 -c 1 -i 20 -a 1 -x {1.0 3.1 -1 ------- null}
+ -t 1.20417066666667 -s 1 -d 2 -p tcp -e 1040 -c 1 -i 21 -a 1 -x {1.0 3.1 14 ------- null}
- -t 1.20583466666667 -s 1 -d 2 -p tcp -e 1040 -c 1 -i 21 -a 1 -x {1.0 3.1 14 ------- null}
h -t 1.20583466666667 -s 1 -d 2 -p tcp -e 1040 -c 1 -i 21 -a 1 -x {1.0 3.1 -1 ------- null}
r -t 1.20674133333333 -s 2 -d 3 -p tcp -e 1040 -c 1 -i 13 -a 1 -x {1.0 3.1 7 ------- null}
+ -t 1.20674133333333 -s 3 -d 2 -p ack -e 40 -c 1 -i 22 -a 1 -x {3.1 1.0 7 ------- null}
- -t 1.20674133333333 -s 3 -d 2 -p ack -e 40 -c 1 -i 22 -a 1 -x {3.1 1.0 7 ------- null}
h -t 1.20674133333333 -s 3 -d 2 -p ack -e 40 -c 1 -i 22 -a 1 -x {3.1 1.0 -1 ------- null}
- -t 1.20783466666667 -s 2 -d 3 -p tcp -e 1040 -c 1 -i 17 -a 1 -x {1.0 3.1 10 ------- null}
h -t 1.20783466666667 -s 2 -d 3 -p tcp -e 1040 -c 1 -i 17 -a 1 -x {1.0 3.1 -1 ------- null}
r -t 1.20783466666667 -s 1 -d 2 -p tcp -e 1040 -c 1 -i 20 -a 1 -x {1.0 3.1 13 ------- null}
+ -t 1.20783466666667 -s 2 -d 3 -p tcp -e 1040 -c 1 -i 20 -a 1 -x {1.0 3.1 13 ------- null}
r -t 1.20949866666667 -s 1 -d 2 -p tcp -e 1040 -c 1 -i 21 -a 1 -x {1.0 3.1 14 ------- null}
+ -t 1.20949866666667 -s 2 -d 3 -p tcp -e 1040 -c 1 -i 21 -a 1 -x {1.0 3.1 14 ------- null}
r -t 1.212288 -s 2 -d 3 -p tcp -e 1040 -c 1 -i 14 -a 1 -x {1.0 3.1 8 ------- null}
+ -t 1.212288 -s 3 -d 2 -p ack -e 40 -c 1 -i 23 -a 1 -x {3.1 1.0 8 ------- null}
- -t 1.212288 -s 3 -d 2 -p ack -e 40 -c 1 -i 23 -a 1 -x {3.1 1.0 8 ------- null}
h -t 1.212288 -s 3 -d 2 -p ack -e 40 -c 1 -i 23 -a 1 -x {3.1 1.0 -1 ------- null}
- -t 1.21338133333333 -s 2 -d 3 -p tcp -e 1040 -c 1 -i 18 -a 1 -x {1.0 3.1 11 ------- null}
h -t 1.21338133333333 -s 2 -d 3 -p tcp -e 1040 -c 1 -i 18 -a 1 -x {1.0 3.1 -1 ------- null}
r -t 1.21695466666667 -s 3 -d 2 -p ack -e 40 -c 1 -i 22 -a 1 -x {3.1 1.0 7 ------- null}
+ -t 1.21695466666667 -s 2 -d 1 -p ack -e 40 -c 1 -i 22 -a 1 -x {3.1 1.0 7 ------- null}
- -t 1.21695466666667 -s 2 -d 1 -p ack -e 40 -c 1 -i 22 -a 1 -x {3.1 1.0 7 ------- null}
h -t 1.21695466666667 -s 2 -d 1 -p ack -e 40 -c 1 -i 22 -a 1 -x {3.1 1.0 -1 ------- null}
r -t 1.21783466666667 -s 2 -d 3 -p tcp -e 1040 -c 1 -i 16 -a 1 -x {1.0 3.1 9 ------- null}
+ -t 1.21783466666667 -s 3 -d 2 -p ack -e 40 -c 1 -i 24 -a 1 -x {3.1 1.0 9 ------- null}
- -t 1.21783466666667 -s 3 -d 2 -p ack -e 40 -c 1 -i 24 -a 1 -x {3.1 1.0 9 ------- null}
h -t 1.21783466666667 -s 3 -d 2 -p ack -e 40 -c 1 -i 24 -a 1 -x {3.1 1.0 -1 ------- null}
- -t 1.218928 -s 2 -d 3 -p tcp -e 1040 -c 1 -i 19 -a 1 -x {1.0 3.1 12 ------- null}
h -t 1.218928 -s 2 -d 3 -p tcp -e 1040 -c 1 -i 19 -a 1 -x {1.0 3.1 -1 ------- null}
r -t 1.21901866666667 -s 2 -d 1 -p ack -e 40 -c 1 -i 22 -a 1 -x {3.1 1.0 7 ------- null}
+ -t 1.21901866666667 -s 1 -d 2 -p tcp -e 1040 -c 1 -i 25 -a 1 -x {1.0 3.1 15 ------- null}
- -t 1.21901866666667 -s 1 -d 2 -p tcp -e 1040 -c 1 -i 25 -a 1 -x {1.0 3.1 15 ------- null}
h -t 1.21901866666667 -s 1 -d 2 -p tcp -e 1040 -c 1 -i 25 -a 1 -x {1.0 3.1 -1 ------- null}
+ -t 1.21901866666667 -s 1 -d 2 -p tcp -e 1040 -c 1 -i 26 -a 1 -x {1.0 3.1 16 ------- null}
- -t 1.22068266666667 -s 1 -d 2 -p tcp -e 1040 -c 1 -i 26 -a 1 -x {1.0 3.1 16 ------- null}
h -t 1.22068266666667 -s 1 -d 2 -p tcp -e 1040 -c 1 -i 26 -a 1 -x {1.0 3.1 -1 ------- null}
r -t 1.22250133333333 -s 3 -d 2 -p ack -e 40 -c 1 -i 23 -a 1 -x {3.1 1.0 8 ------- null}
+ -t 1.22250133333333 -s 2 -d 1 -p ack -e 40 -c 1 -i 23 -a 1 -x {3.1 1.0 8 ------- null}
- -t 1.22250133333333 -s 2 -d 1 -p ack -e 40 -c 1 -i 23 -a 1 -x {3.1 1.0 8 ------- null}
h -t 1.22250133333333 -s 2 -d 1 -p ack -e 40 -c 1 -i 23 -a 1 -x {3.1 1.0 -1 ------- null}
r -t 1.22268266666667 -s 1 -d 2 -p tcp -e 1040 -c 1 -i 25 -a 1 -x {1.0 3.1 15 ------- null}
+ -t 1.22268266666667 -s 2 -d 3 -p tcp -e 1040 -c 1 -i 25 -a 1 -x {1.0 3.1 15 ------- null}
r -t 1.22338133333333 -s 2 -d 3 -p tcp -e 1040 -c 1 -i 17 -a 1 -x {1.0 3.1 10 ------- null}
+ -t 1.22338133333333 -s 3 -d 2 -p ack -e 40 -c 1 -i 27 -a 1 -x {3.1 1.0 10 ------- null}
- -t 1.22338133333333 -s 3 -d 2 -p ack -e 40 -c 1 -i 27 -a 1 -x {3.1 1.0 10 ------- null}
h -t 1.22338133333333 -s 3 -d 2 -p ack -e 40 -c 1 -i 27 -a 1 -x {3.1 1.0 -1 ------- null}
r -t 1.22434666666667 -s 1 -d 2 -p tcp -e 1040 -c 1 -i 26 -a 1 -x {1.0 3.1 16 ------- null}
+ -t 1.22434666666667 -s 2 -d 3 -p tcp -e 1040 -c 1 -i 26 -a 1 -x {1.0 3.1 16 ------- null}
- -t 1.22447466666667 -s 2 -d 3 -p tcp -e 1040 -c 1 -i 20 -a 1 -x {1.0 3.1 13 ------- null}
h -t 1.22447466666667 -s 2 -d 3 -p tcp -e 1040 -c 1 -i 20 -a 1 -x {1.0 3.1 -1 ------- null}
r -t 1.22456533333333 -s 2 -d 1 -p ack -e 40 -c 1 -i 23 -a 1 -x {3.1 1.0 8 ------- null}
+ -t 1.22456533333333 -s 1 -d 2 -p tcp -e 1040 -c 1 -i 28 -a 1 -x {1.0 3.1 17 ------- null}
- -t 1.22456533333333 -s 1 -d 2 -p tcp -e 1040 -c 1 -i 28 -a 1 -x {1.0 3.1 17 ------- null}
h -t 1.22456533333333 -s 1 -d 2 -p tcp -e 1040 -c 1 -i 28 -a 1 -x {1.0 3.1 -1 ------- null}
+ -t 1.22456533333333 -s 1 -d 2 -p tcp -e 1040 -c 1 -i 29 -a 1 -x {1.0 3.1 18 ------- null}
- -t 1.22622933333333 -s 1 -d 2 -p tcp -e 1040 -c 1 -i 29 -a 1 -x {1.0 3.1 18 ------- null}
h -t 1.22622933333333 -s 1 -d 2 -p tcp -e 1040 -c 1 -i 29 -a 1 -x {1.0 3.1 -1 ------- null}
r -t 1.228048 -s 3 -d 2 -p ack -e 40 -c 1 -i 24 -a 1 -x {3.1 1.0 9 ------- null}
+ -t 1.228048 -s 2 -d 1 -p ack -e 40 -c 1 -i 24 -a 1 -x {3.1 1.0 9 ------- null}
- -t 1.228048 -s 2 -d 1 -p ack -e 40 -c 1 -i 24 -a 1 -x {3.1 1.0 9 ------- null}
h -t 1.228048 -s 2 -d 1 -p ack -e 40 -c 1 -i 24 -a 1 -x {3.1 1.0 -1 ------- null}
r -t 1.22822933333333 -s 1 -d 2 -p tcp -e 1040 -c 1 -i 28 -a 1 -x {1.0 3.1 17 ------- null}
+ -t 1.22822933333333 -s 2 -d 3 -p tcp -e 1040 -c 1 -i 28 -a 1 -x {1.0 3.1 17 ------- null}
r -t 1.228928 -s 2 -d 3 -p tcp -e 1040 -c 1 -i 18 -a 1 -x {1.0 3.1 11 ------- null}
+ -t 1.228928 -s 3 -d 2 -p ack -e 40 -c 1 -i 30 -a 1 -x {3.1 1.0 11 ------- null}
- -t 1.228928 -s 3 -d 2 -p ack -e 40 -c 1 -i 30 -a 1 -x {3.1 1.0 11 ------- null}
h -t 1.228928 -s 3 -d 2 -p ack -e 40 -c 1 -i 30 -a 1 -x {3.1 1.0 -1 ------- null}
r -t 1.22989333333333 -s 1 -d 2 -p tcp -e 1040 -c 1 -i 29 -a 1 -x {1.0 3.1 18 ------- null}
+ -t 1.22989333333333 -s 2 -d 3 -p tcp -e 1040 -c 1 -i 29 -a 1 -x {1.0 3.1 18 ------- null}
- -t 1.23002133333333 -s 2 -d 3 -p tcp -e 1040 -c 1 -i 21 -a 1 -x {1.0 3.1 14 ------- null}
h -t 1.23002133333333 -s 2 -d 3 -p tcp -e 1040 -c 1 -i 21 -a 1 -x {1.0 3.1 -1 ------- null}
r -t 1.230112 -s 2 -d 1 -p ack -e 40 -c 1 -i 24 -a 1 -x {3.1 1.0 9 ------- null}
+ -t 1.230112 -s 1 -d 2 -p tcp -e 1040 -c 1 -i 31 -a 1 -x {1.0 3.1 19 ------- null}
- -t 1.230112 -s 1 -d 2 -p tcp -e 1040 -c 1 -i 31 -a 1 -x {1.0 3.1 19 ------- null}
h -t 1.230112 -s 1 -d 2 -p tcp -e 1040 -c 1 -i 31 -a 1 -x {1.0 3.1 -1 ------- null}
+ -t 1.230112 -s 1 -d 2 -p tcp -e 1040 -c 1 -i 32 -a 1 -x {1.0 3.1 20 ------- null}
- -t 1.231776 -s 1 -d 2 -p tcp -e 1040 -c 1 -i 32 -a 1 -x {1.0 3.1 20 ------- null}
h -t 1.231776 -s 1 -d 2 -p tcp -e 1040 -c 1 -i 32 -a 1 -x {1.0 3.1 -1 ------- null}
r -t 1.23359466666667 -s 3 -d 2 -p ack -e 40 -c 1 -i 27 -a 1 -x {3.1 1.0 10 ------- null}
+ -t 1.23359466666667 -s 2 -d 1 -p ack -e 40 -c 1 -i 27 -a 1 -x {3.1 1.0 10 ------- null}
- -t 1.23359466666667 -s 2 -d 1 -p ack -e 40 -c 1 -i 27 -a 1 -x {3.1 1.0 10 ------- null}
h -t 1.23359466666667 -s 2 -d 1 -p ack -e 40 -c 1 -i 27 -a 1 -x {3.1 1.0 -1 ------- null}
r -t 1.233776 -s 1 -d 2 -p tcp -e 1040 -c 1 -i 31 -a 1 -x {1.0 3.1 19 ------- null}
+ -t 1.233776 -s 2 -d 3 -p tcp -e 1040 -c 1 -i 31 -a 1 -x {1.0 3.1 19 ------- null}
r -t 1.23447466666667 -s 2 -d 3 -p tcp -e 1040 -c 1 -i 19 -a 1 -x {1.0 3.1 12 ------- null}
+ -t 1.23447466666667 -s 3 -d 2 -p ack -e 40 -c 1 -i 33 -a 1 -x {3.1 1.0 12 ------- null}
- -t 1.23447466666667 -s 3 -d 2 -p ack -e 40 -c 1 -i 33 -a 1 -x {3.1 1.0 12 ------- null}
h -t 1.23447466666667 -s 3 -d 2 -p ack -e 40 -c 1 -i 33 -a 1 -x {3.1 1.0 -1 ------- null}
r -t 1.23544 -s 1 -d 2 -p tcp -e 1040 -c 1 -i 32 -a 1 -x {1.0 3.1 20 ------- null}
+ -t 1.23544 -s 2 -d 3 -p tcp -e 1040 -c 1 -i 32 -a 1 -x {1.0 3.1 20 ------- null}
- -t 1.235568 -s 2 -d 3 -p tcp -e 1040 -c 1 -i 25 -a 1 -x {1.0 3.1 15 ------- null}
h -t 1.235568 -s 2 -d 3 -p tcp -e 1040 -c 1 -i 25 -a 1 -x {1.0 3.1 -1 ------- null}
r -t 1.23565866666667 -s 2 -d 1 -p ack -e 40 -c 1 -i 27 -a 1 -x {3.1 1.0 10 ------- null}
+ -t 1.23565866666667 -s 1 -d 2 -p tcp -e 1040 -c 1 -i 34 -a 1 -x {1.0 3.1 21 ------- null}
- -t 1.23565866666667 -s 1 -d 2 -p tcp -e 1040 -c 1 -i 34 -a 1 -x {1.0 3.1 21 ------- null}
h -t 1.23565866666667 -s 1 -d 2 -p tcp -e 1040 -c 1 -i 34 -a 1 -x {1.0 3.1 -1 ------- null}
+ -t 1.23565866666667 -s 1 -d 2 -p tcp -e 1040 -c 1 -i 35 -a 1 -x {1.0 3.1 22 ------- null}
- -t 1.23732266666667 -s 1 -d 2 -p tcp -e 1040 -c 1 -i 35 -a 1 -x {1.0 3.1 22 ------- null}
h -t 1.23732266666667 -s 1 -d 2 -p tcp -e 1040 -c 1 -i 35 -a 1 -x {1.0 3.1 -1 ------- null}
r -t 1.23914133333333 -s 3 -d 2 -p ack -e 40 -c 1 -i 30 -a 1 -x {3.1 1.0 11 ------- null}
+ -t 1.23914133333333 -s 2 -d 1 -p ack -e 40 -c 1 -i 30 -a 1 -x {3.1 1.0 11 ------- null}
- -t 1.23914133333333 -s 2 -d 1 -p ack -e 40 -c 1 -i 30 -a 1 -x {3.1 1.0 11 ------- null}
h -t 1.23914133333333 -s 2 -d 1 -p ack -e 40 -c 1 -i 30 -a 1 -x {3.1 1.0 -1 ------- null}
r -t 1.23932266666667 -s 1 -d 2 -p tcp -e 1040 -c 1 -i 34 -a 1 -x {1.0 3.1 21 ------- null}
+ -t 1.23932266666667 -s 2 -d 3 -p tcp -e 1040 -c 1 -i 34 -a 1 -x {1.0 3.1 21 ------- null}
r -t 1.24002133333333 -s 2 -d 3 -p tcp -e 1040 -c 1 -i 20 -a 1 -x {1.0 3.1 13 ------- null}
+ -t 1.24002133333333 -s 3 -d 2 -p ack -e 40 -c 1 -i 36 -a 1 -x {3.1 1.0 13 ------- null}
- -t 1.24002133333333 -s 3 -d 2 -p ack -e 40 -c 1 -i 36 -a 1 -x {3.1 1.0 13 ------- null}
h -t 1.24002133333333 -s 3 -d 2 -p ack -e 40 -c 1 -i 36 -a 1 -x {3.1 1.0 -1 ------- null}
r -t 1.24098666666667 -s 1 -d 2 -p tcp -e 1040 -c 1 -i 35 -a 1 -x {1.0 3.1 22 ------- null}
+ -t 1.24098666666667 -s 2 -d 3 -p tcp -e 1040 -c 1 -i 35 -a 1 -x {1.0 3.1 22 ------- null}
- -t 1.24111466666667 -s 2 -d 3 -p tcp -e 1040 -c 1 -i 26 -a 1 -x {1.0 3.1 16 ------- null}
h -t 1.24111466666667 -s 2 -d 3 -p tcp -e 1040 -c 1 -i 26 -a 1 -x {1.0 3.1 -1 ------- null}
r -t 1.24120533333333 -s 2 -d 1 -p ack -e 40 -c 1 -i 30 -a 1 -x {3.1 1.0 11 ------- null}
+ -t 1.24120533333333 -s 1 -d 2 -p tcp -e 1040 -c 1 -i 37 -a 1 -x {1.0 3.1 23 ------- null}
- -t 1.24120533333333 -s 1 -d 2 -p tcp -e 1040 -c 1 -i 37 -a 1 -x {1.0 3.1 23 ------- null}
h -t 1.24120533333333 -s 1 -d 2 -p tcp -e 1040 -c 1 -i 37 -a 1 -x {1.0 3.1 -1 ------- null}
+ -t 1.24120533333333 -s 1 -d 2 -p tcp -e 1040 -c 1 -i 38 -a 1 -x {1.0 3.1 24 ------- null}
- -t 1.24286933333333 -s 1 -d 2 -p tcp -e 1040 -c 1 -i 38 -a 1 -x {1.0 3.1 24 ------- null}
h -t 1.24286933333333 -s 1 -d 2 -p tcp -e 1040 -c 1 -i 38 -a 1 -x {1.0 3.1 -1 ------- null}
r -t 1.244688 -s 3 -d 2 -p ack -e 40 -c 1 -i 33 -a 1 -x {3.1 1.0 12 ------- null}
+ -t 1.244688 -s 2 -d 1 -p ack -e 40 -c 1 -i 33 -a 1 -x {3.1 1.0 12 ------- null}
- -t 1.244688 -s 2 -d 1 -p ack -e 40 -c 1 -i 33 -a 1 -x {3.1 1.0 12 ------- null}
h -t 1.244688 -s 2 -d 1 -p ack -e 40 -c 1 -i 33 -a 1 -x {3.1 1.0 -1 ------- null}
r -t 1.24486933333333 -s 1 -d 2 -p tcp -e 1040 -c 1 -i 37 -a 1 -x {1.0 3.1 23 ------- null}
+ -t 1.24486933333333 -s 2 -d 3 -p tcp -e 1040 -c 1 -i 37 -a 1 -x {1.0 3.1 23 ------- null}
r -t 1.245568 -s 2 -d 3 -p tcp -e 1040 -c 1 -i 21 -a 1 -x {1.0 3.1 14 ------- null}
+ -t 1.245568 -s 3 -d 2 -p ack -e 40 -c 1 -i 39 -a 1 -x {3.1 1.0 14 ------- null}
- -t 1.245568 -s 3 -d 2 -p ack -e 40 -c 1 -i 39 -a 1 -x {3.1 1.0 14 ------- null}
h -t 1.245568 -s 3 -d 2 -p ack -e 40 -c 1 -i 39 -a 1 -x {3.1 1.0 -1 ------- null}
r -t 1.24653333333333 -s 1 -d 2 -p tcp -e 1040 -c 1 -i 38 -a 1 -x {1.0 3.1 24 ------- null}
+ -t 1.24653333333333 -s 2 -d 3 -p tcp -e 1040 -c 1 -i 38 -a 1 -x {1.0 3.1 24 ------- null}
- -t 1.24666133333333 -s 2 -d 3 -p tcp -e 1040 -c 1 -i 28 -a 1 -x {1.0 3.1 17 ------- null}
h -t 1.24666133333333 -s 2 -d 3 -p tcp -e 1040 -c 1 -i 28 -a 1 -x {1.0 3.1 -1 ------- null}
r -t 1.246752 -s 2 -d 1 -p ack -e 40 -c 1 -i 33 -a 1 -x {3.1 1.0 12 ------- null}
+ -t 1.246752 -s 1 -d 2 -p tcp -e 1040 -c 1 -i 40 -a 1 -x {1.0 3.1 25 ------- null}
- -t 1.246752 -s 1 -d 2 -p tcp -e 1040 -c 1 -i 40 -a 1 -x {1.0 3.1 25 ------- null}
h -t 1.246752 -s 1 -d 2 -p tcp -e 1040 -c 1 -i 40 -a 1 -x {1.0 3.1 -1 ------- null}
+ -t 1.246752 -s 1 -d 2 -p tcp -e 1040 -c 1 -i 41 -a 1 -x {1.0 3.1 26 ------- null}
- -t 1.248416 -s 1 -d 2 -p tcp -e 1040 -c 1 -i 41 -a 1 -x {1.0 3.1 26 ------- null}
h -t 1.248416 -s 1 -d 2 -p tcp -e 1040 -c 1 -i 41 -a 1 -x {1.0 3.1 -1 ------- null}
r -t 1.25023466666667 -s 3 -d 2 -p ack -e 40 -c 1 -i 36 -a 1 -x {3.1 1.0 13 ------- null}
+ -t 1.25023466666667 -s 2 -d 1 -p ack -e 40 -c 1 -i 36 -a 1 -x {3.1 1.0 13 ------- null}
- -t 1.25023466666667 -s 2 -d 1 -p ack -e 40 -c 1 -i 36 -a 1 -x {3.1 1.0 13 ------- null}
h -t 1.25023466666667 -s 2 -d 1 -p ack -e 40 -c 1 -i 36 -a 1 -x {3.1 1.0 -1 ------- null}
r -t 1.250416 -s 1 -d 2 -p tcp -e 1040 -c 1 -i 40 -a 1 -x {1.0 3.1 25 ------- null}
+ -t 1.250416 -s 2 -d 3 -p tcp -e 1040 -c 1 -i 40 -a 1 -x {1.0 3.1 25 ------- null}
r -t 1.25111466666667 -s 2 -d 3 -p tcp -e 1040 -c 1 -i 25 -a 1 -x {1.0 3.1 15 ------- null}
+ -t 1.25111466666667 -s 3 -d 2 -p ack -e 40 -c 1 -i 42 -a 1 -x {3.1 1.0 15 ------- null}
- -t 1.25111466666667 -s 3 -d 2 -p ack -e 40 -c 1 -i 42 -a 1 -x {3.1 1.0 15 ------- null}
h -t 1.25111466666667 -s 3 -d 2 -p ack -e 40 -c 1 -i 42 -a 1 -x {3.1 1.0 -1 ------- null}
r -t 1.25208 -s 1 -d 2 -p tcp -e 1040 -c 1 -i 41 -a 1 -x {1.0 3.1 26 ------- null}
+ -t 1.25208 -s 2 -d 3 -p tcp -e 1040 -c 1 -i 41 -a 1 -x {1.0 3.1 26 ------- null}
- -t 1.252208 -s 2 -d 3 -p tcp -e 1040 -c 1 -i 29 -a 1 -x {1.0 3.1 18 ------- null}
h -t 1.252208 -s 2 -d 3 -p tcp -e 1040 -c 1 -i 29 -a 1 -x {1.0 3.1 -1 ------- null}
r -t 1.25229866666667 -s 2 -d 1 -p ack -e 40 -c 1 -i 36 -a 1 -x {3.1 1.0 13 ------- null}
+ -t 1.25229866666667 -s 1 -d 2 -p tcp -e 1040 -c 1 -i 43 -a 1 -x {1.0 3.1 27 ------- null}
- -t 1.25229866666667 -s 1 -d 2 -p tcp -e 1040 -c 1 -i 43 -a 1 -x {1.0 3.1 27 ------- null}
h -t 1.25229866666667 -s 1 -d 2 -p tcp -e 1040 -c 1 -i 43 -a 1 -x {1.0 3.1 -1 ------- null}
+ -t 1.25229866666667 -s 1 -d 2 -p tcp -e 1040 -c 1 -i 44 -a 1 -x {1.0 3.1 28 ------- null}
- -t 1.25396266666667 -s 1 -d 2 -p tcp -e 1040 -c 1 -i 44 -a 1 -x {1.0 3.1 28 ------- null}
h -t 1.25396266666667 -s 1 -d 2 -p tcp -e 1040 -c 1 -i 44 -a 1 -x {1.0 3.1 -1 ------- null}
r -t 1.25578133333333 -s 3 -d 2 -p ack -e 40 -c 1 -i 39 -a 1 -x {3.1 1.0 14 ------- null}
+ -t 1.25578133333333 -s 2 -d 1 -p ack -e 40 -c 1 -i 39 -a 1 -x {3.1 1.0 14 ------- null}
- -t 1.25578133333333 -s 2 -d 1 -p ack -e 40 -c 1 -i 39 -a 1 -x {3.1 1.0 14 ------- null}
h -t 1.25578133333333 -s 2 -d 1 -p ack -e 40 -c 1 -i 39 -a 1 -x {3.1 1.0 -1 ------- null}
r -t 1.25596266666667 -s 1 -d 2 -p tcp -e 1040 -c 1 -i 43 -a 1 -x {1.0 3.1 27 ------- null}
+ -t 1.25596266666667 -s 2 -d 3 -p tcp -e 1040 -c 1 -i 43 -a 1 -x {1.0 3.1 27 ------- null}
r -t 1.25666133333333 -s 2 -d 3 -p tcp -e 1040 -c 1 -i 26 -a 1 -x {1.0 3.1 16 ------- null}
+ -t 1.25666133333333 -s 3 -d 2 -p ack -e 40 -c 1 -i 45 -a 1 -x {3.1 1.0 16 ------- null}
- -t 1.25666133333333 -s 3 -d 2 -p ack -e 40 -c 1 -i 45 -a 1 -x {3.1 1.0 16 ------- null}
h -t 1.25666133333333 -s 3 -d 2 -p ack -e 40 -c 1 -i 45 -a 1 -x {3.1 1.0 -1 ------- null}
r -t 1.25762666666667 -s 1 -d 2 -p tcp -e 1040 -c 1 -i 44 -a 1 -x {1.0 3.1 28 ------- null}
+ -t 1.25762666666667 -s 2 -d 3 -p tcp -e 1040 -c 1 -i 44 -a 1 -x {1.0 3.1 28 ------- null}
- -t 1.25775466666667 -s 2 -d 3 -p tcp -e 1040 -c 1 -i 31 -a 1 -x {1.0 3.1 19 ------- null}
h -t 1.25775466666667 -s 2 -d 3 -p tcp -e 1040 -c 1 -i 31 -a 1 -x {1.0 3.1 -1 ------- null}
r -t 1.25784533333333 -s 2 -d 1 -p ack -e 40 -c 1 -i 39 -a 1 -x {3.1 1.0 14 ------- null}
+ -t 1.25784533333333 -s 1 -d 2 -p tcp -e 1040 -c 1 -i 46 -a 1 -x {1.0 3.1 29 ------- null}
- -t 1.25784533333333 -s 1 -d 2 -p tcp -e 1040 -c 1 -i 46 -a 1 -x {1.0 3.1 29 ------- null}
h -t 1.25784533333333 -s 1 -d 2 -p tcp -e 1040 -c 1 -i 46 -a 1 -x {1.0 3.1 -1 ------- null}
+ -t 1.25784533333333 -s 1 -d 2 -p tcp -e 1040 -c 1 -i 47 -a 1 -x {1.0 3.1 30 ------- null}
- -t 1.25950933333333 -s 1 -d 2 -p tcp -e 1040 -c 1 -i 47 -a 1 -x {1.0 3.1 30 ------- null}