+ 1.1 1 2 tcp 40 ------- 1 1.0 3.1 0 0
- 1.1 1 2 tcp 40 ------- 1 1.0 3.1 0 0
r 1.102064 1 2 tcp 40 ------- 1 1.0 3.1 0 0
+ 1.102064 2 3 tcp 40 ------- 1 1.0 3.1 0 0
- 1.102064 2 3 tcp 40 ------- 1 1.0 3.1 0 0
r 1.112277 2 3 tcp 40 ------- 1 1.0 3.1 0 0
+ 1.112277 3 2 ack 40 ------- 1 3.1 1.0 0 1
- 1.112277 3 2 ack 40 ------- 1 3.1 1.0 0 1
r 1.122491 3 2 ack 40 ------- 1 3.1 1.0 0 1
+ 1.122491 2 1 ack 40 ------- 1 3.1 1.0 0 1
- 1.122491 2 1 ack 40 ------- 1 3.1 1.0 0 1
r 1.124555 2 1 ack 40 ------- 1 3.1 1.0 0 1
+ 1.124555 1 2 tcp 1040 ------- 1 1.0 3.1 1 2
- 1.124555 1 2 tcp 1040 ------- 1 1.0 3.1 1 2
+ 1.124555 1 2 tcp 1040 ------- 1 1.0 3.1 2 3
- 1.126219 1 2 tcp 1040 ------- 1 1.0 3.1 2 3
r 1.128219 1 2 tcp 1040 ------- 1 1.0 3.1 1 2
+ 1.128219 2 3 tcp 1040 ------- 1 1.0 3.1 1 2
- 1.128219 2 3 tcp 1040 ------- 1 1.0 3.1 1 2
r 1.129883 1 2 tcp 1040 ------- 1 1.0 3.1 2 3
+ 1.129883 2 3 tcp 1040 ------- 1 1.0 3.1 2 3
- 1.133765 2 3 tcp 1040 ------- 1 1.0 3.1 2 3
r 1.143765 2 3 tcp 1040 ------- 1 1.0 3.1 1 2
+ 1.143765 3 2 ack 40 ------- 1 3.1 1.0 1 4
- 1.143765 3 2 ack 40 ------- 1 3.1 1.0 1 4
r 1.149312 2 3 tcp 1040 ------- 1 1.0 3.1 2 3
+ 1.149312 3 2 ack 40 ------- 1 3.1 1.0 2 5
- 1.149312 3 2 ack 40 ------- 1 3.1 1.0 2 5
r 1.153979 3 2 ack 40 ------- 1 3.1 1.0 1 4
+ 1.153979 2 1 ack 40 ------- 1 3.1 1.0 1 4
- 1.153979 2 1 ack 40 ------- 1 3.1 1.0 1 4
r 1.156043 2 1 ack 40 ------- 1 3.1 1.0 1 4
+ 1.156043 1 2 tcp 1040 ------- 1 1.0 3.1 3 6
- 1.156043 1 2 tcp 1040 ------- 1 1.0 3.1 3 6
+ 1.156043 1 2 tcp 1040 ------- 1 1.0 3.1 4 7
- 1.157707 1 2 tcp 1040 ------- 1 1.0 3.1 4 7
r 1.159525 3 2 ack 40 ------- 1 3.1 1.0 2 5
+ 1.159525 2 1 ack 40 ------- 1 3.1 1.0 2 5
- 1.159525 2 1 ack 40 ------- 1 3.1 1.0 2 5
r 1.159707 1 2 tcp 1040 ------- 1 1.0 3.1 3 6
+ 1.159707 2 3 tcp 1040 ------- 1 1.0 3.1 3 6
- 1.159707 2 3 tcp 1040 ------- 1 1.0 3.1 3 6
r 1.161371 1 2 tcp 1040 ------- 1 1.0 3.1 4 7
+ 1.161371 2 3 tcp 1040 ------- 1 1.0 3.1 4 7
r 1.161589 2 1 ack 40 ------- 1 3.1 1.0 2 5
+ 1.161589 1 2 tcp 1040 ------- 1 1.0 3.1 5 8
- 1.161589 1 2 tcp 1040 ------- 1 1.0 3.1 5 8
+ 1.161589 1 2 tcp 1040 ------- 1 1.0 3.1 6 9
- 1.163253 1 2 tcp 1040 ------- 1 1.0 3.1 6 9
- 1.165253 2 3 tcp 1040 ------- 1 1.0 3.1 4 7
r 1.165253 1 2 tcp 1040 ------- 1 1.0 3.1 5 8
+ 1.165253 2 3 tcp 1040 ------- 1 1.0 3.1 5 8
r 1.166917 1 2 tcp 1040 ------- 1 1.0 3.1 6 9
+ 1.166917 2 3 tcp 1040 ------- 1 1.0 3.1 6 9
- 1.1708 2 3 tcp 1040 ------- 1 1.0 3.1 5 8
r 1.175253 2 3 tcp 1040 ------- 1 1.0 3.1 3 6
+ 1.175253 3 2 ack 40 ------- 1 3.1 1.0 3 10
- 1.175253 3 2 ack 40 ------- 1 3.1 1.0 3 10
- 1.176347 2 3 tcp 1040 ------- 1 1.0 3.1 6 9
r 1.1808 2 3 tcp 1040 ------- 1 1.0 3.1 4 7
+ 1.1808 3 2 ack 40 ------- 1 3.1 1.0 4 11
- 1.1808 3 2 ack 40 ------- 1 3.1 1.0 4 11
r 1.185467 3 2 ack 40 ------- 1 3.1 1.0 3 10
+ 1.185467 2 1 ack 40 ------- 1 3.1 1.0 3 10
- 1.185467 2 1 ack 40 ------- 1 3.1 1.0 3 10
r 1.186347 2 3 tcp 1040 ------- 1 1.0 3.1 5 8
+ 1.186347 3 2 ack 40 ------- 1 3.1 1.0 5 12
- 1.186347 3 2 ack 40 ------- 1 3.1 1.0 5 12
r 1.187531 2 1 ack 40 ------- 1 3.1 1.0 3 10
+ 1.187531 1 2 tcp 1040 ------- 1 1.0 3.1 7 13
- 1.187531 1 2 tcp 1040 ------- 1 1.0 3.1 7 13
+ 1.187531 1 2 tcp 1040 ------- 1 1.0 3.1 8 14
- 1.189195 1 2 tcp 1040 ------- 1 1.0 3.1 8 14
r 1.191013 3 2 ack 40 ------- 1 3.1 1.0 4 11
+ 1.191013 2 1 ack 40 ------- 1 3.1 1.0 4 11
- 1.191013 2 1 ack 40 ------- 1 3.1 1.0 4 11
r 1.191195 1 2 tcp 1040 ------- 1 1.0 3.1 7 13
+ 1.191195 2 3 tcp 1040 ------- 1 1.0 3.1 7 13
- 1.191195 2 3 tcp 1040 ------- 1 1.0 3.1 7 13
r 1.191893 2 3 tcp 1040 ------- 1 1.0 3.1 6 9
+ 1.191893 3 2 ack 40 ------- 1 3.1 1.0 6 15
- 1.191893 3 2 ack 40 ------- 1 3.1 1.0 6 15
r 1.192859 1 2 tcp 1040 ------- 1 1.0 3.1 8 14
+ 1.192859 2 3 tcp 1040 ------- 1 1.0 3.1 8 14
r 1.193077 2 1 ack 40 ------- 1 3.1 1.0 4 11
+ 1.193077 1 2 tcp 1040 ------- 1 1.0 3.1 9 16
- 1.193077 1 2 tcp 1040 ------- 1 1.0 3.1 9 16
+ 1.193077 1 2 tcp 1040 ------- 1 1.0 3.1 10 17
- 1.194741 1 2 tcp 1040 ------- 1 1.0 3.1 10 17
r 1.19656 3 2 ack 40 ------- 1 3.1 1.0 5 12
+ 1.19656 2 1 ack 40 ------- 1 3.1 1.0 5 12
- 1.19656 2 1 ack 40 ------- 1 3.1 1.0 5 12
- 1.196741 2 3 tcp 1040 ------- 1 1.0 3.1 8 14
r 1.196741 1 2 tcp 1040 ------- 1 1.0 3.1 9 16
+ 1.196741 2 3 tcp 1040 ------- 1 1.0 3.1 9 16
r 1.198405 1 2 tcp 1040 ------- 1 1.0 3.1 10 17
+ 1.198405 2 3 tcp 1040 ------- 1 1.0 3.1 10 17
r 1.198624 2 1 ack 40 ------- 1 3.1 1.0 5 12
+ 1.198624 1 2 tcp 1040 ------- 1 1.0 3.1 11 18
- 1.198624 1 2 tcp 1040 ------- 1 1.0 3.1 11 18
+ 1.198624 1 2 tcp 1040 ------- 1 1.0 3.1 12 19
- 1.200288 1 2 tcp 1040 ------- 1 1.0 3.1 12 19
r 1.202107 3 2 ack 40 ------- 1 3.1 1.0 6 15
+ 1.202107 2 1 ack 40 ------- 1 3.1 1.0 6 15
- 1.202107 2 1 ack 40 ------- 1 3.1 1.0 6 15
- 1.202288 2 3 tcp 1040 ------- 1 1.0 3.1 9 16
r 1.202288 1 2 tcp 1040 ------- 1 1.0 3.1 11 18
+ 1.202288 2 3 tcp 1040 ------- 1 1.0 3.1 11 18
r 1.203952 1 2 tcp 1040 ------- 1 1.0 3.1 12 19
+ 1.203952 2 3 tcp 1040 ------- 1 1.0 3.1 12 19
r 1.204171 2 1 ack 40 ------- 1 3.1 1.0 6 15
+ 1.204171 1 2 tcp 1040 ------- 1 1.0 3.1 13 20
- 1.204171 1 2 tcp 1040 ------- 1 1.0 3.1 13 20
+ 1.204171 1 2 tcp 1040 ------- 1 1.0 3.1 14 21
- 1.205835 1 2 tcp 1040 ------- 1 1.0 3.1 14 21
r 1.206741 2 3 tcp 1040 ------- 1 1.0 3.1 7 13
+ 1.206741 3 2 ack 40 ------- 1 3.1 1.0 7 22
- 1.206741 3 2 ack 40 ------- 1 3.1 1.0 7 22
- 1.207835 2 3 tcp 1040 ------- 1 1.0 3.1 10 17
r 1.207835 1 2 tcp 1040 ------- 1 1.0 3.1 13 20
+ 1.207835 2 3 tcp 1040 ------- 1 1.0 3.1 13 20
r 1.209499 1 2 tcp 1040 ------- 1 1.0 3.1 14 21
+ 1.209499 2 3 tcp 1040 ------- 1 1.0 3.1 14 21
r 1.212288 2 3 tcp 1040 ------- 1 1.0 3.1 8 14
+ 1.212288 3 2 ack 40 ------- 1 3.1 1.0 8 23
- 1.212288 3 2 ack 40 ------- 1 3.1 1.0 8 23
- 1.213381 2 3 tcp 1040 ------- 1 1.0 3.1 11 18
r 1.216955 3 2 ack 40 ------- 1 3.1 1.0 7 22
+ 1.216955 2 1 ack 40 ------- 1 3.1 1.0 7 22
- 1.216955 2 1 ack 40 ------- 1 3.1 1.0 7 22
r 1.217835 2 3 tcp 1040 ------- 1 1.0 3.1 9 16
+ 1.217835 3 2 ack 40 ------- 1 3.1 1.0 9 24
- 1.217835 3 2 ack 40 ------- 1 3.1 1.0 9 24
- 1.218928 2 3 tcp 1040 ------- 1 1.0 3.1 12 19
r 1.219019 2 1 ack 40 ------- 1 3.1 1.0 7 22
+ 1.219019 1 2 tcp 1040 ------- 1 1.0 3.1 15 25
- 1.219019 1 2 tcp 1040 ------- 1 1.0 3.1 15 25
+ 1.219019 1 2 tcp 1040 ------- 1 1.0 3.1 16 26
- 1.220683 1 2 tcp 1040 ------- 1 1.0 3.1 16 26
r 1.222501 3 2 ack 40 ------- 1 3.1 1.0 8 23
+ 1.222501 2 1 ack 40 ------- 1 3.1 1.0 8 23
- 1.222501 2 1 ack 40 ------- 1 3.1 1.0 8 23
r 1.222683 1 2 tcp 1040 ------- 1 1.0 3.1 15 25
+ 1.222683 2 3 tcp 1040 ------- 1 1.0 3.1 15 25
r 1.223381 2 3 tcp 1040 ------- 1 1.0 3.1 10 17
+ 1.223381 3 2 ack 40 ------- 1 3.1 1.0 10 27
- 1.223381 3 2 ack 40 ------- 1 3.1 1.0 10 27
r 1.224347 1 2 tcp 1040 ------- 1 1.0 3.1 16 26
+ 1.224347 2 3 tcp 1040 ------- 1 1.0 3.1 16 26
- 1.224475 2 3 tcp 1040 ------- 1 1.0 3.1 13 20
r 1.224565 2 1 ack 40 ------- 1 3.1 1.0 8 23
+ 1.224565 1 2 tcp 1040 ------- 1 1.0 3.1 17 28
- 1.224565 1 2 tcp 1040 ------- 1 1.0 3.1 17 28
+ 1.224565 1 2 tcp 1040 ------- 1 1.0 3.1 18 29
- 1.226229 1 2 tcp 1040 ------- 1 1.0 3.1 18 29
r 1.228048 3 2 ack 40 ------- 1 3.1 1.0 9 24
+ 1.228048 2 1 ack 40 ------- 1 3.1 1.0 9 24
- 1.228048 2 1 ack 40 ------- 1 3.1 1.0 9 24
r 1.228229 1 2 tcp 1040 ------- 1 1.0 3.1 17 28
+ 1.228229 2 3 tcp 1040 ------- 1 1.0 3.1 17 28
r 1.228928 2 3 tcp 1040 ------- 1 1.0 3.1 11 18
+ 1.228928 3 2 ack 40 ------- 1 3.1 1.0 11 30
- 1.228928 3 2 ack 40 ------- 1 3.1 1.0 11 30
r 1.229893 1 2 tcp 1040 ------- 1 1.0 3.1 18 29
+ 1.229893 2 3 tcp 1040 ------- 1 1.0 3.1 18 29
- 1.230021 2 3 tcp 1040 ------- 1 1.0 3.1 14 21
r 1.230112 2 1 ack 40 ------- 1 3.1 1.0 9 24
+ 1.230112 1 2 tcp 1040 ------- 1 1.0 3.1 19 31
- 1.230112 1 2 tcp 1040 ------- 1 1.0 3.1 19 31
+ 1.230112 1 2 tcp 1040 ------- 1 1.0 3.1 20 32
- 1.231776 1 2 tcp 1040 ------- 1 1.0 3.1 20 32
r 1.233595 3 2 ack 40 ------- 1 3.1 1.0 10 27
+ 1.233595 2 1 ack 40 ------- 1 3.1 1.0 10 27
- 1.233595 2 1 ack 40 ------- 1 3.1 1.0 10 27
r 1.233776 1 2 tcp 1040 ------- 1 1.0 3.1 19 31
+ 1.233776 2 3 tcp 1040 ------- 1 1.0 3.1 19 31
r 1.234475 2 3 tcp 1040 ------- 1 1.0 3.1 12 19
+ 1.234475 3 2 ack 40 ------- 1 3.1 1.0 12 33
- 1.234475 3 2 ack 40 ------- 1 3.1 1.0 12 33
r 1.23544 1 2 tcp 1040 ------- 1 1.0 3.1 20 32
+ 1.23544 2 3 tcp 1040 ------- 1 1.0 3.1 20 32
- 1.235568 2 3 tcp 1040 ------- 1 1.0 3.1 15 25
r 1.235659 2 1 ack 40 ------- 1 3.1 1.0 10 27
+ 1.235659 1 2 tcp 1040 ------- 1 1.0 3.1 21 34
- 1.235659 1 2 tcp 1040 ------- 1 1.0 3.1 21 34
+ 1.235659 1 2 tcp 1040 ------- 1 1.0 3.1 22 35
- 1.237323 1 2 tcp 1040 ------- 1 1.0 3.1 22 35
r 1.239141 3 2 ack 40 ------- 1 3.1 1.0 11 30
+ 1.239141 2 1 ack 40 ------- 1 3.1 1.0 11 30
- 1.239141 2 1 ack 40 ------- 1 3.1 1.0 11 30
r 1.239323 1 2 tcp 1040 ------- 1 1.0 3.1 21 34
+ 1.239323 2 3 tcp 1040 ------- 1 1.0 3.1 21 34
r 1.240021 2 3 tcp 1040 ------- 1 1.0 3.1 13 20
+ 1.240021 3 2 ack 40 ------- 1 3.1 1.0 13 36
- 1.240021 3 2 ack 40 ------- 1 3.1 1.0 13 36
r 1.240987 1 2 tcp 1040 ------- 1 1.0 3.1 22 35
+ 1.240987 2 3 tcp 1040 ------- 1 1.0 3.1 22 35
- 1.241115 2 3 tcp 1040 ------- 1 1.0 3.1 16 26
r 1.241205 2 1 ack 40 ------- 1 3.1 1.0 11 30
+ 1.241205 1 2 tcp 1040 ------- 1 1.0 3.1 23 37
- 1.241205 1 2 tcp 1040 ------- 1 1.0 3.1 23 37
+ 1.241205 1 2 tcp 1040 ------- 1 1.0 3.1 24 38
- 1.242869 1 2 tcp 1040 ------- 1 1.0 3.1 24 38
r 1.244688 3 2 ack 40 ------- 1 3.1 1.0 12 33
+ 1.244688 2 1 ack 40 ------- 1 3.1 1.0 12 33
- 1.244688 2 1 ack 40 ------- 1 3.1 1.0 12 33
r 1.244869 1 2 tcp 1040 ------- 1 1.0 3.1 23 37
+ 1.244869 2 3 tcp 1040 ------- 1 1.0 3.1 23 37
r 1.245568 2 3 tcp 1040 ------- 1 1.0 3.1 14 21
+ 1.245568 3 2 ack 40 ------- 1 3.1 1.0 14 39
- 1.245568 3 2 ack 40 ------- 1 3.1 1.0 14 39
r 1.246533 1 2 tcp 1040 ------- 1 1.0 3.1 24 38
+ 1.246533 2 3 tcp 1040 ------- 1 1.0 3.1 24 38
- 1.246661 2 3 tcp 1040 ------- 1 1.0 3.1 17 28
r 1.246752 2 1 ack 40 ------- 1 3.1 1.0 12 33
+ 1.246752 1 2 tcp 1040 ------- 1 1.0 3.1 25 40
- 1.246752 1 2 tcp 1040 ------- 1 1.0 3.1 25 40
+ 1.246752 1 2 tcp 1040 ------- 1 1.0 3.1 26 41
- 1.248416 1 2 tcp 1040 ------- 1 1.0 3.1 26 41
r 1.250235 3 2 ack 40 ------- 1 3.1 1.0 13 36
+ 1.250235 2 1 ack 40 ------- 1 3.1 1.0 13 36
- 1.250235 2 1 ack 40 ------- 1 3.1 1.0 13 36
r 1.250416 1 2 tcp 1040 ------- 1 1.0 3.1 25 40
+ 1.250416 2 3 tcp 1040 ------- 1 1.0 3.1 25 40
r 1.251115 2 3 tcp 1040 ------- 1 1.0 3.1 15 25
+ 1.251115 3 2 ack 40 ------- 1 3.1 1.0 15 42
- 1.251115 3 2 ack 40 ------- 1 3.1 1.0 15 42
r 1.25208 1 2 tcp 1040 ------- 1 1.0 3.1 26 41
+ 1.25208 2 3 tcp 1040 ------- 1 1.0 3.1 26 41
- 1.252208 2 3 tcp 1040 ------- 1 1.0 3.1 18 29
r 1.252299 2 1 ack 40 ------- 1 3.1 1.0 13 36
+ 1.252299 1 2 tcp 1040 ------- 1 1.0 3.1 27 43
- 1.252299 1 2 tcp 1040 ------- 1 1.0 3.1 27 43
+ 1.252299 1 2 tcp 1040 ------- 1 1.0 3.1 28 44
- 1.253963 1 2 tcp 1040 ------- 1 1.0 3.1 28 44
r 1.255781 3 2 ack 40 ------- 1 3.1 1.0 14 39
+ 1.255781 2 1 ack 40 ------- 1 3.1 1.0 14 39
- 1.255781 2 1 ack 40 ------- 1 3.1 1.0 14 39
r 1.255963 1 2 tcp 1040 ------- 1 1.0 3.1 27 43
+ 1.255963 2 3 tcp 1040 ------- 1 1.0 3.1 27 43
r 1.256661 2 3 tcp 1040 ------- 1 1.0 3.1 16 26
+ 1.256661 3 2 ack 40 ------- 1 3.1 1.0 16 45
- 1.256661 3 2 ack 40 ------- 1 3.1 1.0 16 45
r 1.257627 1 2 tcp 1040 ------- 1 1.0 3.1 28 44
+ 1.257627 2 3 tcp 1040 ------- 1 1.0 3.1 28 44
- 1.257755 2 3 tcp 1040 ------- 1 1.0 3.1 19 31
r 1.257845 2 1 ack 40 ------- 1 3.1 1.0 14 39
+ 1.257845 1 2 tcp 1040 ------- 1 1.0 3.1 29 46
- 1.257845 1 2 tcp 1040 ------- 1 1.0 3.1 29 46
+ 1.257845 1 2 tcp 1040 ------- 1 1.0 3.1 30 47
- 1.259509 1 2 tcp 1040 ------- 1 1.0 3.1 30 47
r 1.261328 3 2 ack 40 ------- 1 3.1 1.0 15 42
+ 1.261328 2 1 ack 40 ------- 1 3.1 1.0 15 42
- 1.261328 2 1 ack 40 ------- 1 3.1 1.0 15 42
r 1.261509 1 2 tcp 1040 ------- 1 1.0 3.1 29 46
+ 1.261509 2 3 tcp 1040 ------- 1 1.0 3.1 29 46
r 1.262208 2 3 tcp 1040 ------- 1 1.0 3.1 17 28
+ 1.262208 3 2 ack 40 ------- 1 3.1 1.0 17 48
- 1.262208 3 2 ack 40 ------- 1 3.1 1.0 17 48
r 1.263173 1 2 tcp 1040 ------- 1 1.0 3.1 30 47
+ 1.263173 2 3 tcp 1040 ------- 1 1.0 3.1 30 47
- 1.263301 2 3 tcp 1040 ------- 1 1.0 3.1 20 32
r 1.263392 2 1 ack 40 ------- 1 3.1 1.0 15 42
+ 1.263392 1 2 tcp 1040 ------- 1 1.0 3.1 31 49
- 1.263392 1 2 tcp 1040 ------- 1 1.0 3.1 31 49
+ 1.263392 1 2 tcp 1040 ------- 1 1.0 3.1 32 50
- 1.265056 1 2 tcp 1040 ------- 1 1.0 3.1 32 50
r 1.266875 3 2 ack 40 ------- 1 3.1 1.0 16 45
+ 1.266875 2 1 ack 40 ------- 1 3.1 1.0 16 45
- 1.266875 2 1 ack 40 ------- 1 3.1 1.0 16 45
r 1.267056 1 2 tcp 1040 ------- 1 1.0 3.1 31 49
+ 1.267056 2 3 tcp 1040 ------- 1 1.0 3.1 31 49
r 1.267755 2 3 tcp 1040 ------- 1 1.0 3.1 18 29
+ 1.267755 3 2 ack 40 ------- 1 3.1 1.0 18 51
- 1.267755 3 2 ack 40 ------- 1 3.1 1.0 18 51
r 1.26872 1 2 tcp 1040 ------- 1 1.0 3.1 32 50
+ 1.26872 2 3 tcp 1040 ------- 1 1.0 3.1 32 50
- 1.268848 2 3 tcp 1040 ------- 1 1.0 3.1 21 34
r 1.268939 2 1 ack 40 ------- 1 3.1 1.0 16 45
+ 1.268939 1 2 tcp 1040 ------- 1 1.0 3.1 33 52
- 1.268939 1 2 tcp 1040 ------- 1 1.0 3.1 33 52
+ 1.268939 1 2 tcp 1040 ------- 1 1.0 3.1 34 53
- 1.270603 1 2 tcp 1040 ------- 1 1.0 3.1 34 53
r 1.272421 3 2 ack 40 ------- 1 3.1 1.0 17 48
+ 1.272421 2 1 ack 40 ------- 1 3.1 1.0 17 48
- 1.272421 2 1 ack 40 ------- 1 3.1 1.0 17 48
r 1.272603 1 2 tcp 1040 ------- 1 1.0 3.1 33 52
+ 1.272603 2 3 tcp 1040 ------- 1 1.0 3.1 33 52
r 1.273301 2 3 tcp 1040 ------- 1 1.0 3.1 19 31
+ 1.273301 3 2 ack 40 ------- 1 3.1 1.0 19 54
- 1.273301 3 2 ack 40 ------- 1 3.1 1.0 19 54
r 1.274267 1 2 tcp 1040 ------- 1 1.0 3.1 34 53
+ 1.274267 2 3 tcp 1040 ------- 1 1.0 3.1 34 53
- 1.274395 2 3 tcp 1040 ------- 1 1.0 3.1 22 35
r 1.274485 2 1 ack 40 ------- 1 3.1 1.0 17 48
+ 1.274485 1 2 tcp 1040 ------- 1 1.0 3.1 35 55
- 1.274485 1 2 tcp 1040 ------- 1 1.0 3.1 35 55
+ 1.274485 1 2 tcp 1040 ------- 1 1.0 3.1 36 56
- 1.276149 1 2 tcp 1040 ------- 1 1.0 3.1 36 56
r 1.277968 3 2 ack 40 ------- 1 3.1 1.0 18 51
+ 1.277968 2 1 ack 40 ------- 1 3.1 1.0 18 51
- 1.277968 2 1 ack 40 ------- 1 3.1 1.0 18 51
r 1.278149 1 2 tcp 1040 ------- 1 1.0 3.1 35 55
+ 1.278149 2 3 tcp 1040 ------- 1 1.0 3.1 35 55
r 1.278848 2 3 tcp 1040 ------- 1 1.0 3.1 20 32
+ 1.278848 3 2 ack 40 ------- 1 3.1 1.0 20 57
- 1.278848 3 2 ack 40 ------- 1 3.1 1.0 20 57
r 1.279813 1 2 tcp 1040 ------- 1 1.0 3.1 36 56
+ 1.279813 2 3 tcp 1040 ------- 1 1.0 3.1 36 56
- 1.279941 2 3 tcp 1040 ------- 1 1.0 3.1 23 37
r 1.280032 2 1 ack 40 ------- 1 3.1 1.0 18 51
+ 1.280032 1 2 tcp 1040 ------- 1 1.0 3.1 37 58
- 1.280032 1 2 tcp 1040 ------- 1 1.0 3.1 37 58
+ 1.280032 1 2 tcp 1040 ------- 1 1.0 3.1 38 59
- 1.281696 1 2 tcp 1040 ------- 1 1.0 3.1 38 59
r 1.283515 3 2 ack 40 ------- 1 3.1 1.0 19 54
+ 1.283515 2 1 ack 40 ------- 1 3.1 1.0 19 54
- 1.283515 2 1 ack 40 ------- 1 3.1 1.0 19 54
r 1.283696 1 2 tcp 1040 ------- 1 1.0 3.1 37 58
+ 1.283696 2 3 tcp 1040 ------- 1 1.0 3.1 37 58
r 1.284395 2 3 tcp 1040 ------- 1 1.0 3.1 21 34
+ 1.284395 3 2 ack 40 ------- 1 3.1 1.0 21 60
- 1.284395 3 2 ack 40 ------- 1 3.1 1.0 21 60
r 1.28536 1 2 tcp 1040 ------- 1 1.0 3.1 38 59
+ 1.28536 2 3 tcp 1040 ------- 1 1.0 3.1 38 59
- 1.285488 2 3 tcp 1040 ------- 1 1.0 3.1 24 38
r 1.285579 2 1 ack 40 ------- 1 3.1 1.0 19 54
+ 1.285579 1 2 tcp 1040 ------- 1 1.0 3.1 39 61
- 1.285579 1 2 tcp 1040 ------- 1 1.0 3.1 39 61
r 1.289061 3 2 ack 40 ------- 1 3.1 1.0 20 57
+ 1.289061 2 1 ack 40 ------- 1 3.1 1.0 20 57
- 1.289061 2 1 ack 40 ------- 1 3.1 1.0 20 57
r 1.289243 1 2 tcp 1040 ------- 1 1.0 3.1 39 61
+ 1.289243 2 3 tcp 1040 ------- 1 1.0 3.1 39 61
r 1.289941 2 3 tcp 1040 ------- 1 1.0 3.1 22 35
+ 1.289941 3 2 ack 40 ------- 1 3.1 1.0 22 62
- 1.289941 3 2 ack 40 ------- 1 3.1 1.0 22 62
- 1.291035 2 3 tcp 1040 ------- 1 1.0 3.1 25 40
r 1.291125 2 1 ack 40 ------- 1 3.1 1.0 20 57
+ 1.291125 1 2 tcp 1040 ------- 1 1.0 3.1 40 63
- 1.291125 1 2 tcp 1040 ------- 1 1.0 3.1 40 63
r 1.294608 3 2 ack 40 ------- 1 3.1 1.0 21 60
+ 1.294608 2 1 ack 40 ------- 1 3.1 1.0 21 60
- 1.294608 2 1 ack 40 ------- 1 3.1 1.0 21 60
r 1.294789 1 2 tcp 1040 ------- 1 1.0 3.1 40 63
+ 1.294789 2 3 tcp 1040 ------- 1 1.0 3.1 40 63
r 1.295488 2 3 tcp 1040 ------- 1 1.0 3.1 23 37
+ 1.295488 3 2 ack 40 ------- 1 3.1 1.0 23 64
- 1.295488 3 2 ack 40 ------- 1 3.1 1.0 23 64
- 1.296581 2 3 tcp 1040 ------- 1 1.0 3.1 26 41
r 1.296672 2 1 ack 40 ------- 1 3.1 1.0 21 60
+ 1.296672 1 2 tcp 1040 ------- 1 1.0 3.1 41 65
- 1.296672 1 2 tcp 1040 ------- 1 1.0 3.1 41 65
r 1.300155 3 2 ack 40 ------- 1 3.1 1.0 22 62
+ 1.300155 2 1 ack 40 ------- 1 3.1 1.0 22 62
- 1.300155 2 1 ack 40 ------- 1 3.1 1.0 22 62
r 1.300336 1 2 tcp 1040 ------- 1 1.0 3.1 41 65
+ 1.300336 2 3 tcp 1040 ------- 1 1.0 3.1 41 65
r 1.301035 2 3 tcp 1040 ------- 1 1.0 3.1 24 38
+ 1.301035 3 2 ack 40 ------- 1 3.1 1.0 24 66
- 1.301035 3 2 ack 40 ------- 1 3.1 1.0 24 66
- 1.302128 2 3 tcp 1040 ------- 1 1.0 3.1 27 43
r 1.302219 2 1 ack 40 ------- 1 3.1 1.0 22 62
+ 1.302219 1 2 tcp 1040 ------- 1 1.0 3.1 42 67
- 1.302219 1 2 tcp 1040 ------- 1 1.0 3.1 42 67
r 1.305701 3 2 ack 40 ------- 1 3.1 1.0 23 64
+ 1.305701 2 1 ack 40 ------- 1 3.1 1.0 23 64
- 1.305701 2 1 ack 40 ------- 1 3.1 1.0 23 64
r 1.305883 1 2 tcp 1040 ------- 1 1.0 3.1 42 67
+ 1.305883 2 3 tcp 1040 ------- 1 1.0 3.1 42 67
r 1.306581 2 3 tcp 1040 ------- 1 1.0 3.1 25 40
+ 1.306581 3 2 ack 40 ------- 1 3.1 1.0 25 68
- 1.306581 3 2 ack 40 ------- 1 3.1 1.0 25 68
- 1.307675 2 3 tcp 1040 ------- 1 1.0 3.1 28 44
r 1.307765 2 1 ack 40 ------- 1 3.1 1.0 23 64
+ 1.307765 1 2 tcp 1040 ------- 1 1.0 3.1 43 69
- 1.307765 1 2 tcp 1040 ------- 1 1.0 3.1 43 69
r 1.311248 3 2 ack 40 ------- 1 3.1 1.0 24 66
+ 1.311248 2 1 ack 40 ------- 1 3.1 1.0 24 66
- 1.311248 2 1 ack 40 ------- 1 3.1 1.0 24 66
r 1.311429 1 2 tcp 1040 ------- 1 1.0 3.1 43 69
+ 1.311429 2 3 tcp 1040 ------- 1 1.0 3.1 43 69
r 1.312128 2 3 tcp 1040 ------- 1 1.0 3.1 26 41
+ 1.312128 3 2 ack 40 ------- 1 3.1 1.0 26 70
- 1.312128 3 2 ack 40 ------- 1 3.1 1.0 26 70
- 1.313221 2 3 tcp 1040 ------- 1 1.0 3.1 29 46
r 1.313312 2 1 ack 40 ------- 1 3.1 1.0 24 66
+ 1.313312 1 2 tcp 1040 ------- 1 1.0 3.1 44 71
- 1.313312 1 2 tcp 1040 ------- 1 1.0 3.1 44 71
r 1.316795 3 2 ack 40 ------- 1 3.1 1.0 25 68
+ 1.316795 2 1 ack 40 ------- 1 3.1 1.0 25 68
- 1.316795 2 1 ack 40 ------- 1 3.1 1.0 25 68
r 1.316976 1 2 tcp 1040 ------- 1 1.0 3.1 44 71
+ 1.316976 2 3 tcp 1040 ------- 1 1.0 3.1 44 71
r 1.317675 2 3 tcp 1040 ------- 1 1.0 3.1 27 43
+ 1.317675 3 2 ack 40 ------- 1 3.1 1.0 27 72
- 1.317675 3 2 ack 40 ------- 1 3.1 1.0 27 72
- 1.318768 2 3 tcp 1040 ------- 1 1.0 3.1 30 47
r 1.318859 2 1 ack 40 ------- 1 3.1 1.0 25 68
+ 1.318859 1 2 tcp 1040 ------- 1 1.0 3.1 45 73
- 1.318859 1 2 tcp 1040 ------- 1 1.0 3.1 45 73
r 1.322341 3 2 ack 40 ------- 1 3.1 1.0 26 70
+ 1.322341 2 1 ack 40 ------- 1 3.1 1.0 26 70
- 1.322341 2 1 ack 40 ------- 1 3.1 1.0 26 70
r 1.322523 1 2 tcp 1040 ------- 1 1.0 3.1 45 73
+ 1.322523 2 3 tcp 1040 ------- 1 1.0 3.1 45 73
r 1.323221 2 3 tcp 1040 ------- 1 1.0 3.1 28 44
+ 1.323221 3 2 ack 40 ------- 1 3.1 1.0 28 74
- 1.323221 3 2 ack 40 ------- 1 3.1 1.0 28 74
- 1.324315 2 3 tcp 1040 ------- 1 1.0 3.1 31 49
r 1.324405 2 1 ack 40 ------- 1 3.1 1.0 26 70
+ 1.324405 1 2 tcp 1040 ------- 1 1.0 3.1 46 75
- 1.324405 1 2 tcp 1040 ------- 1 1.0 3.1 46 75
r 1.327888 3 2 ack 40 ------- 1 3.1 1.0 27 72
+ 1.327888 2 1 ack 40 ------- 1 3.1 1.0 27 72
- 1.327888 2 1 ack 40 ------- 1 3.1 1.0 27 72
r 1.328069 1 2 tcp 1040 ------- 1 1.0 3.1 46 75
+ 1.328069 2 3 tcp 1040 ------- 1 1.0 3.1 46 75
r 1.328768 2 3 tcp 1040 ------- 1 1.0 3.1 29 46
+ 1.328768 3 2 ack 40 ------- 1 3.1 1.0 29 76
- 1.328768 3 2 ack 40 ------- 1 3.1 1.0 29 76
- 1.329861 2 3 tcp 1040 ------- 1 1.0 3.1 32 50
r 1.329952 2 1 ack 40 ------- 1 3.1 1.0 27 72
+ 1.329952 1 2 tcp 1040 ------- 1 1.0 3.1 47 77
- 1.329952 1 2 tcp 1040 ------- 1 1.0 3.1 47 77
r 1.333435 3 2 ack 40 ------- 1 3.1 1.0 28 74
+ 1.333435 2 1 ack 40 ------- 1 3.1 1.0 28 74
- 1.333435 2 1 ack 40 ------- 1 3.1 1.0 28 74
r 1.333616 1 2 tcp 1040 ------- 1 1.0 3.1 47 77
+ 1.333616 2 3 tcp 1040 ------- 1 1.0 3.1 47 77
r 1.334315 2 3 tcp 1040 ------- 1 1.0 3.1 30 47
+ 1.334315 3 2 ack 40 ------- 1 3.1 1.0 30 78
- 1.334315 3 2 ack 40 ------- 1 3.1 1.0 30 78
- 1.335408 2 3 tcp 1040 ------- 1 1.0 3.1 33 52
r 1.335499 2 1 ack 40 ------- 1 3.1 1.0 28 74
+ 1.335499 1 2 tcp 1040 ------- 1 1.0 3.1 48 79
- 1.335499 1 2 tcp 1040 ------- 1 1.0 3.1 48 79
r 1.338981 3 2 ack 40 ------- 1 3.1 1.0 29 76
+ 1.338981 2 1 ack 40 ------- 1 3.1 1.0 29 76
- 1.338981 2 1 ack 40 ------- 1 3.1 1.0 29 76
r 1.339163 1 2 tcp 1040 ------- 1 1.0 3.1 48 79
+ 1.339163 2 3 tcp 1040 ------- 1 1.0 3.1 48 79
r 1.339861 2 3 tcp 1040 ------- 1 1.0 3.1 31 49
+ 1.339861 3 2 ack 40 ------- 1 3.1 1.0 31 80
- 1.339861 3 2 ack 40 ------- 1 3.1 1.0 31 80
- 1.340955 2 3 tcp 1040 ------- 1 1.0 3.1 34 53
r 1.341045 2 1 ack 40 ------- 1 3.1 1.0 29 76
+ 1.341045 1 2 tcp 1040 ------- 1 1.0 3.1 49 81
- 1.341045 1 2 tcp 1040 ------- 1 1.0 3.1 49 81
r 1.344528 3 2 ack 40 ------- 1 3.1 1.0 30 78
+ 1.344528 2 1 ack 40 ------- 1 3.1 1.0 30 78
- 1.344528 2 1 ack 40 ------- 1 3.1 1.0 30 78
r 1.344709 1 2 tcp 1040 ------- 1 1.0 3.1 49 81
+ 1.344709 2 3 tcp 1040 ------- 1 1.0 3.1 49 81
r 1.345408 2 3 tcp 1040 ------- 1 1.0 3.1 32 50
+ 1.345408 3 2 ack 40 ------- 1 3.1 1.0 32 82
- 1.345408 3 2 ack 40 ------- 1 3.1 1.0 32 82
- 1.346501 2 3 tcp 1040 ------- 1 1.0 3.1 35 55
r 1.346592 2 1 ack 40 ------- 1 3.1 1.0 30 78
+ 1.346592 1 2 tcp 1040 ------- 1 1.0 3.1 50 83
- 1.346592 1 2 tcp 1040 ------- 1 1.0 3.1 50 83
r 1.350075 3 2 ack 40 ------- 1 3.1 1.0 31 80
+ 1.350075 2 1 ack 40 ------- 1 3.1 1.0 31 80
- 1.350075 2 1 ack 40 ------- 1 3.1 1.0 31 80
r 1.350256 1 2 tcp 1040 ------- 1 1.0 3.1 50 83
+ 1.350256 2 3 tcp 1040 ------- 1 1.0 3.1 50 83
r 1.350955 2 3 tcp 1040 ------- 1 1.0 3.1 33 52
- 1.352048 2 3 tcp 1040 ------- 1 1.0 3.1 36 56
r 1.352139 2 1 ack 40 ------- 1 3.1 1.0 31 80
r 1.355621 3 2 ack 40 ------- 1 3.1 1.0 32 82
+ 1.355621 2 1 ack 40 ------- 1 3.1 1.0 32 82
- 1.355621 2 1 ack 40 ------- 1 3.1 1.0 32 82
r 1.356501 2 3 tcp 1040 ------- 1 1.0 3.1 34 53
- 1.357595 2 3 tcp 1040 ------- 1 1.0 3.1 37 58
r 1.357685 2 1 ack 40 ------- 1 3.1 1.0 32 82
r 1.362048 2 3 tcp 1040 ------- 1 1.0 3.1 35 55
- 1.363141 2 3 tcp 1040 ------- 1 1.0 3.1 38 59
r 1.367595 2 3 tcp 1040 ------- 1 1.0 3.1 36 56
- 1.368688 2 3 tcp 1040 ------- 1 1.0 3.1 39 61
r 1.373141 2 3 tcp 1040 ------- 1 1.0 3.1 37 58
- 1.374235 2 3 tcp 1040 ------- 1 1.0 3.1 40 63
r 1.378688 2 3 tcp 1040 ------- 1 1.0 3.1 38 59
- 1.379781 2 3 tcp 1040 ------- 1 1.0 3.1 41 65
r 1.384235 2 3 tcp 1040 ------- 1 1.0 3.1 39 61
- 1.385328 2 3 tcp 1040 ------- 1 1.0 3.1 42 67
r 1.389781 2 3 tcp 1040 ------- 1 1.0 3.1 40 63
- 1.390875 2 3 tcp 1040 ------- 1 1.0 3.1 43 69
r 1.395328 2 3 tcp 1040 ------- 1 1.0 3.1 41 65
- 1.396421 2 3 tcp 1040 ------- 1 1.0 3.1 44 71
r 1.400875 2 3 tcp 1040 ------- 1 1.0 3.1 42 67
- 1.401968 2 3 tcp 1040 ------- 1 1.0 3.1 45 73
r 1.406421 2 3 tcp 1040 ------- 1 1.0 3.1 43 69
- 1.407515 2 3 tcp 1040 ------- 1 1.0 3.1 46 75
r 1.411968 2 3 tcp 1040 ------- 1 1.0 3.1 44 71
- 1.413061 2 3 tcp 1040 ------- 1 1.0 3.1 47 77
r 1.417515 2 3 tcp 1040 ------- 1 1.0 3.1 45 73
- 1.418608 2 3 tcp 1040 ------- 1 1.0 3.1 48 79
r 1.423061 2 3 tcp 1040 ------- 1 1.0 3.1 46 75
- 1.424155 2 3 tcp 1040 ------- 1 1.0 3.1 49 81
r 1.428608 2 3 tcp 1040 ------- 1 1.0 3.1 47 77
- 1.429701 2 3 tcp 1040 ------- 1 1.0 3.1 50 83
r 1.434155 2 3 tcp 1040 ------- 1 1.0 3.1 48 79
r 1.439701 2 3 tcp 1040 ------- 1 1.0 3.1 49 81
r 1.445248 2 3 tcp 1040 ------- 1 1.0 3.1 50 83
+ 2 0 2 cbr 210 ------- 0 0.0 3.0 0 88
- 2 0 2 cbr 210 ------- 0 0.0 3.0 0 88
r 2.002336 0 2 cbr 210 ------- 0 0.0 3.0 0 88
+ 2.002336 2 3 cbr 210 ------- 0 0.0 3.0 0 88
- 2.002336 2 3 cbr 210 ------- 0 0.0 3.0 0 88
+ 2.00375 0 2 cbr 210 ------- 0 0.0 3.0 1 89
- 2.00375 0 2 cbr 210 ------- 0 0.0 3.0 1 89
r 2.006086 0 2 cbr 210 ------- 0 0.0 3.0 1 89
+ 2.006086 2 3 cbr 210 ------- 0 0.0 3.0 1 89
- 2.006086 2 3 cbr 210 ------- 0 0.0 3.0 1 89
+ 2.0075 0 2 cbr 210 ------- 0 0.0 3.0 2 90
- 2.0075 0 2 cbr 210 ------- 0 0.0 3.0 2 90
r 2.009836 0 2 cbr 210 ------- 0 0.0 3.0 2 90
+ 2.009836 2 3 cbr 210 ------- 0 0.0 3.0 2 90
- 2.009836 2 3 cbr 210 ------- 0 0.0 3.0 2 90
+ 2.01125 0 2 cbr 210 ------- 0 0.0 3.0 3 91
- 2.01125 0 2 cbr 210 ------- 0 0.0 3.0 3 91
r 2.013456 2 3 cbr 210 ------- 0 0.0 3.0 0 88
r 2.013586 0 2 cbr 210 ------- 0 0.0 3.0 3 91
+ 2.013586 2 3 cbr 210 ------- 0 0.0 3.0 3 91
- 2.013586 2 3 cbr 210 ------- 0 0.0 3.0 3 91
+ 2.015 0 2 cbr 210 ------- 0 0.0 3.0 4 92
- 2.015 0 2 cbr 210 ------- 0 0.0 3.0 4 92
r 2.017206 2 3 cbr 210 ------- 0 0.0 3.0 1 89
r 2.017336 0 2 cbr 210 ------- 0 0.0 3.0 4 92
+ 2.017336 2 3 cbr 210 ------- 0 0.0 3.0 4 92
- 2.017336 2 3 cbr 210 ------- 0 0.0 3.0 4 92
+ 2.01875 0 2 cbr 210 ------- 0 0.0 3.0 5 93
- 2.01875 0 2 cbr 210 ------- 0 0.0 3.0 5 93
r 2.020956 2 3 cbr 210 ------- 0 0.0 3.0 2 90
r 2.021086 0 2 cbr 210 ------- 0 0.0 3.0 5 93
+ 2.021086 2 3 cbr 210 ------- 0 0.0 3.0 5 93
- 2.021086 2 3 cbr 210 ------- 0 0.0 3.0 5 93
+ 2.0225 0 2 cbr 210 ------- 0 0.0 3.0 6 94
- 2.0225 0 2 cbr 210 ------- 0 0.0 3.0 6 94
r 2.024706 2 3 cbr 210 ------- 0 0.0 3.0 3 91
r 2.024836 0 2 cbr 210 ------- 0 0.0 3.0 6 94
+ 2.024836 2 3 cbr 210 ------- 0 0.0 3.0 6 94
- 2.024836 2 3 cbr 210 ------- 0 0.0 3.0 6 94
+ 2.02625 0 2 cbr 210 ------- 0 0.0 3.0 7 95
- 2.02625 0 2 cbr 210 ------- 0 0.0 3.0 7 95
r 2.028456 2 3 cbr 210 ------- 0 0.0 3.0 4 92
r 2.028586 0 2 cbr 210 ------- 0 0.0 3.0 7 95
+ 2.028586 2 3 cbr 210 ------- 0 0.0 3.0 7 95
- 2.028586 2 3 cbr 210 ------- 0 0.0 3.0 7 95
+ 2.03 0 2 cbr 210 ------- 0 0.0 3.0 8 96
- 2.03 0 2 cbr 210 ------- 0 0.0 3.0 8 96
r 2.032206 2 3 cbr 210 ------- 0 0.0 3.0 5 93
r 2.032336 0 2 cbr 210 ------- 0 0.0 3.0 8 96
+ 2.032336 2 3 cbr 210 ------- 0 0.0 3.0 8 96
- 2.032336 2 3 cbr 210 ------- 0 0.0 3.0 8 96
+ 2.03375 0 2 cbr 210 ------- 0 0.0 3.0 9 97
- 2.03375 0 2 cbr 210 ------- 0 0.0 3.0 9 97
r 2.035956 2 3 cbr 210 ------- 0 0.0 3.0 6 94
r 2.036086 0 2 cbr 210 ------- 0 0.0 3.0 9 97
+ 2.036086 2 3 cbr 210 ------- 0 0.0 3.0 9 97
- 2.036086 2 3 cbr 210 ------- 0 0.0 3.0 9 97
+ 2.0375 0 2 cbr 210 ------- 0 0.0 3.0 10 98
- 2.0375 0 2 cbr 210 ------- 0 0.0 3.0 10 98
r 2.039706 2 3 cbr 210 ------- 0 0.0 3.0 7 95
r 2.039836 0 2 cbr 210 ------- 0 0.0 3.0 10 98
+ 2.039836 2 3 cbr 210 ------- 0 0.0 3.0 10 98
- 2.039836 2 3 cbr 210 ------- 0 0.0 3.0 10 98
+ 2.04125 0 2 cbr 210 ------- 0 0.0 3.0 11 99
- 2.04125 0 2 cbr 210 ------- 0 0.0 3.0 11 99
r 2.043456 2 3 cbr 210 ------- 0 0.0 3.0 8 96
r 2.043586 0 2 cbr 210 ------- 0 0.0 3.0 11 99
+ 2.043586 2 3 cbr 210 ------- 0 0.0 3.0 11 99
- 2.043586 2 3 cbr 210 ------- 0 0.0 3.0 11 99
+ 2.045 0 2 cbr 210 ------- 0 0.0 3.0 12 100
- 2.045 0 2 cbr 210 ------- 0 0.0 3.0 12 100
r 2.047206 2 3 cbr 210 ------- 0 0.0 3.0 9 97
r 2.047336 0 2 cbr 210 ------- 0 0.0 3.0 12 100
+ 2.047336 2 3 cbr 210 ------- 0 0.0 3.0 12 100
- 2.047336 2 3 cbr 210 ------- 0 0.0 3.0 12 100
+ 2.04875 0 2 cbr 210 ------- 0 0.0 3.0 13 101
- 2.04875 0 2 cbr 210 ------- 0 0.0 3.0 13 101
r 2.050956 2 3 cbr 210 ------- 0 0.0 3.0 10 98
r 2.051086 0 2 cbr 210 ------- 0 0.0 3.0 13 101
+ 2.051086 2 3 cbr 210 ------- 0 0.0 3.0 13 101
- 2.051086 2 3 cbr 210 ------- 0 0.0 3.0 13 101
+ 2.0525 0 2 cbr 210 ------- 0 0.0 3.0 14 102
- 2.0525 0 2 cbr 210 ------- 0 0.0 3.0 14 102
r 2.054706 2 3 cbr 210 ------- 0 0.0 3.0 11 99
r 2.054836 0 2 cbr 210 ------- 0 0.0 3.0 14 102
+ 2.054836 2 3 cbr 210 ------- 0 0.0 3.0 14 102
- 2.054836 2 3 cbr 210 ------- 0 0.0 3.0 14 102
+ 2.05625 0 2 cbr 210 ------- 0 0.0 3.0 15 103
- 2.05625 0 2 cbr 210 ------- 0 0.0 3.0 15 103
r 2.058456 2 3 cbr 210 ------- 0 0.0 3.0 12 100
r 2.058586 0 2 cbr 210 ------- 0 0.0 3.0 15 103
+ 2.058586 2 3 cbr 210 ------- 0 0.0 3.0 15 103
- 2.058586 2 3 cbr 210 ------- 0 0.0 3.0 15 103
+ 2.06 0 2 cbr 210 ------- 0 0.0 3.0 16 104
- 2.06 0 2 cbr 210 ------- 0 0.0 3.0 16 104
r 2.062206 2 3 cbr 210 ------- 0 0.0 3.0 13 101
r 2.062336 0 2 cbr 210 ------- 0 0.0 3.0 16 104
+ 2.062336 2 3 cbr 210 ------- 0 0.0 3.0 16 104
- 2.062336 2 3 cbr 210 ------- 0 0.0 3.0 16 104
+ 2.06375 0 2 cbr 210 ------- 0 0.0 3.0 17 105
- 2.06375 0 2 cbr 210 ------- 0 0.0 3.0 17 105
r 2.065956 2 3 cbr 210 ------- 0 0.0 3.0 14 102
r 2.066086 0 2 cbr 210 ------- 0 0.0 3.0 17 105
+ 2.066086 2 3 cbr 210 ------- 0 0.0 3.0 17 105
- 2.066086 2 3 cbr 210 ------- 0 0.0 3.0 17 105
+ 2.0675 0 2 cbr 210 ------- 0 0.0 3.0 18 106
- 2.0675 0 2 cbr 210 ------- 0 0.0 3.0 18 106
r 2.069706 2 3 cbr 210 ------- 0 0.0 3.0 15 103
r 2.069836 0 2 cbr 210 ------- 0 0.0 3.0 18 106
+ 2.069836 2 3 cbr 210 ------- 0 0.0 3.0 18 106
- 2.069836 2 3 cbr 210 ------- 0 0.0 3.0 18 106
+ 2.07125 0 2 cbr 210 ------- 0 0.0 3.0 19 107
- 2.07125 0 2 cbr 210 ------- 0 0.0 3.0 19 107
r 2.073456 2 3 cbr 210 ------- 0 0.0 3.0 16 104
r 2.073586 0 2 cbr 210 ------- 0 0.0 3.0 19 107
+ 2.073586 2 3 cbr 210 ------- 0 0.0 3.0 19 107
- 2.073586 2 3 cbr 210 ------- 0 0.0 3.0 19 107
+ 2.075 0 2 cbr 210 ------- 0 0.0 3.0 20 108
- 2.075 0 2 cbr 210 ------- 0 0.0 3.0 20 108
r 2.077206 2 3 cbr 210 ------- 0 0.0 3.0 17 105
r 2.077336 0 2 cbr 210 ------- 0 0.0 3.0 20 108
+ 2.077336 2 3 cbr 210 ------- 0 0.0 3.0 20 108
- 2.077336 2 3 cbr 210 ------- 0 0.0 3.0 20 108
+ 2.07875 0 2 cbr 210 ------- 0 0.0 3.0 21 109
- 2.07875 0 2 cbr 210 ------- 0 0.0 3.0 21 109
r 2.080956 2 3 cbr 210 ------- 0 0.0 3.0 18 106
r 2.081086 0 2 cbr 210 ------- 0 0.0 3.0 21 109
+ 2.081086 2 3 cbr 210 ------- 0 0.0 3.0 21 109
- 2.081086 2 3 cbr 210 ------- 0 0.0 3.0 21 109
+ 2.0825 0 2 cbr 210 ------- 0 0.0 3.0 22 110
- 2.0825 0 2 cbr 210 ------- 0 0.0 3.0 22 110
r 2.084706 2 3 cbr 210 ------- 0 0.0 3.0 19 107
r 2.084836 0 2 cbr 210 ------- 0 0.0 3.0 22 110
+ 2.084836 2 3 cbr 210 ------- 0 0.0 3.0 22 110
- 2.084836 2 3 cbr 210 ------- 0 0.0 3.0 22 110
+ 2.08625 0 2 cbr 210 ------- 0 0.0 3.0 23 111
- 2.08625 0 2 cbr 210 ------- 0 0.0 3.0 23 111
r 2.088456 2 3 cbr 210 ------- 0 0.0 3.0 20 108