s 32.604864175 _79_ MAC  --- 3 exp 97 [0 1f 4f 800] [energy 49.787224 ei 0.000 es 0.000 et 0.003 er 0.209] ------- [79:0 0:0 30 31] 
r 32.610784000 _0_ MAC  --- 3 exp 90 [0 0 7 800] [energy 49.045080 ei 0.000 es 0.000 et 0.045 er 0.910] ------- [79:0 0:0 28 0] 
s 32.617344175 _79_ MAC  --- 4 exp 97 [0 1f 4f 800] [energy 49.784352 ei 0.000 es 0.000 et 0.005 er 0.211] ------- [79:0 0:0 30 31] 
r 32.812344175 _0_ MAC  --- 4 exp 97 [0 1f 4f 800] [energy 49.784352 ei 0.000 es 0.000 et 0.005 er 0.211] ------- [79:0 0:0 30 31] 