s 10.001625000 _76_ MAC  --- 0 AODV 55 [0 ffffffff 4c 800] [energy 49.999760 ei 0.000 es 0.000 et 0.000 er 0.000] ------- [76:255 -1:255 30 0] [0x2 1 1 [14 0] [76 4]] (REQUEST)
N -t 10.001625 -n 44 -e 49.998536
N -t 10.001625 -n 56 -e 49.998536
N -t 10.001625 -n 88 -e 49.998536
N -t 10.001625 -n 28 -e 49.998536
N -t 10.001625 -n 64 -e 49.998536
N -t 10.001625 -n 68 -e 49.998536
N -t 10.001625 -n 83 -e 49.998536
N -t 10.001625 -n 36 -e 49.998536
N -t 10.001625 -n 16 -e 49.998536
N -t 10.001625 -n 96 -e 49.998536
N -t 10.001625 -n 99 -e 49.998536
N -t 10.001625 -n 60 -e 49.998536
r 10.004217024 _44_ MAC  --- 0 AODV 48 [0 ffffffff 4c 800] [energy 49.998536 ei 0.000 es 0.000 et 0.000 er 0.001] ------- [76:255 -1:255 30 0] [0x2 1 1 [14 0] [76 4]] (REQUEST)
r 10.004217024 _56_ MAC  --- 0 AODV 48 [0 ffffffff 4c 800] [energy 49.998536 ei 0.000 es 0.000 et 0.000 er 0.001] ------- [76:255 -1:255 30 0] [0x2 1 1 [14 0] [76 4]] (REQUEST)
r 10.004217024 _88_ MAC  --- 0 AODV 48 [0 ffffffff 4c 800] [energy 49.998536 ei 0.000 es 0.000 et 0.000 er 0.001] ------- [76:255 -1:255 30 0] [0x2 1 1 [14 0] [76 4]] (REQUEST)
r 10.004217033 _28_ MAC  --- 0 AODV 48 [0 ffffffff 4c 800] [energy 49.998536 ei 0.000 es 0.000 et 0.000 er 0.001] ------- [76:255 -1:255 30 0] [0x2 1 1 [14 0] [76 4]] (REQUEST)
r 10.004217033 _64_ MAC  --- 0 AODV 48 [0 ffffffff 4c 800] [energy 49.998536 ei 0.000 es 0.000 et 0.000 er 0.001] ------- [76:255 -1:255 30 0] [0x2 1 1 [14 0] [76 4]] (REQUEST)
r 10.004217033 _68_ MAC  --- 0 AODV 48 [0 ffffffff 4c 800] [energy 49.998536 ei 0.000 es 0.000 et 0.000 er 0.001] ------- [76:255 -1:255 30 0] [0x2 1 1 [14 0] [76 4]] (REQUEST)
r 10.004217047 _83_ MAC  --- 0 AODV 48 [0 ffffffff 4c 800] [energy 49.998536 ei 0.000 es 0.000 et 0.000 er 0.001] ------- [76:255 -1:255 30 0] [0x2 1 1 [14 0] [76 4]] (REQUEST)
r 10.004217047 _36_ MAC  --- 0 AODV 48 [0 ffffffff 4c 800] [energy 49.998536 ei 0.000 es 0.000 et 0.000 er 0.001] ------- [76:255 -1:255 30 0] [0x2 1 1 [14 0] [76 4]] (REQUEST)
r 10.004217053 _16_ MAC  --- 0 AODV 48 [0 ffffffff 4c 800] [energy 49.998536 ei 0.000 es 0.000 et 0.000 er 0.001] ------- [76:255 -1:255 30 0] [0x2 1 1 [14 0] [76 4]] (REQUEST)
r 10.004217053 _96_ MAC  --- 0 AODV 48 [0 ffffffff 4c 800] [energy 49.998536 ei 0.000 es 0.000 et 0.000 er 0.001] ------- [76:255 -1:255 30 0] [0x2 1 1 [14 0] [76 4]] (REQUEST)
r 10.004217071 _99_ MAC  --- 0 AODV 48 [0 ffffffff 4c 800] [energy 49.998536 ei 0.000 es 0.000 et 0.000 er 0.001] ------- [76:255 -1:255 30 0] [0x2 1 1 [14 0] [76 4]] (REQUEST)
r 10.004217085 _60_ MAC  --- 0 AODV 48 [0 ffffffff 4c 800] [energy 49.998536 ei 0.000 es 0.000 et 0.000 er 0.001] ------- [76:255 -1:255 30 0] [0x2 1 1 [14 0] [76 4]] (REQUEST)
s 10.005945208 _16_ MAC  --- 0 AODV 55 [0 ffffffff 10 800] [energy 49.998296 ei 0.000 es 0.000 et 0.000 er 0.002] ------- [16:255 -1:255 29 0] [0x2 2 1 [14 0] [76 4]] (REQUEST)
N -t 10.005945 -n 39 -e 49.998536
N -t 10.005945 -n 28 -e 49.997072
N -t 10.005945 -n 8 -e 49.998536
N -t 10.005945 -n 36 -e 49.997072
N -t 10.005945 -n 23 -e 49.998536
N -t 10.005945 -n 56 -e 49.997072
N -t 10.005945 -n 20 -e 49.998536
N -t 10.005945 -n 44 -e 49.997072
N -t 10.005945 -n 4 -e 49.998536
N -t 10.005945 -n 76 -e 49.997808
N -t 10.005945 -n 71 -e 49.998536
N -t 10.005945 -n 68 -e 49.997072
N -t 10.005945 -n 9 -e 49.998536
N -t 10.005945 -n 64 -e 49.997072
N -t 10.005945 -n 0 -e 49.998536
s 10.008306510 _44_ MAC  --- 0 AODV 55 [0 ffffffff 2c 800] [energy 49.996832 ei 0.000 es 0.000 et 0.000 er 0.003] ------- [44:255 -1:255 29 0] [0x2 2 1 [14 0] [76 4]] (REQUEST)
N -t 10.008307 -n 83 -e 49.997072
N -t 10.008307 -n 64 -e 49.995608
N -t 10.008307 -n 28 -e 49.995128
N -t 10.008307 -n 76 -e 49.996344
N -t 10.008307 -n 51 -e 49.998536
N -t 10.008307 -n 99 -e 49.997072
N -t 10.008307 -n 16 -e 49.996344
N -t 10.008307 -n 88 -e 49.997072
N -t 10.008307 -n 71 -e 49.997072
N -t 10.008307 -n 36 -e 49.995608
N -t 10.008307 -n 59 -e 49.998536
N -t 10.008307 -n 48 -e 49.998536
N -t 10.008307 -n 67 -e 49.998536
r 10.008537232 _39_ MAC  --- 0 AODV 48 [0 ffffffff 10 800] [energy 49.998536 ei 0.000 es 0.000 et 0.000 er 0.001] ------- [16:255 -1:255 29 0] [0x2 2 1 [14 0] [76 4]] (REQUEST)
r 10.008537232 _28_ MAC  --- 0 AODV 48 [0 ffffffff 10 800] [energy 49.995128 ei 0.000 es 0.000 et 0.000 er 0.005] ------- [16:255 -1:255 29 0] [0x2 2 1 [14 0] [76 4]] (REQUEST)
r 10.008537232 _8_ MAC  --- 0 AODV 48 [0 ffffffff 10 800] [energy 49.998536 ei 0.000 es 0.000 et 0.000 er 0.001] ------- [16:255 -1:255 29 0] [0x2 2 1 [14 0] [76 4]] (REQUEST)
r 10.008537232 _36_ MAC  --- 0 AODV 48 [0 ffffffff 10 800] [energy 49.995608 ei 0.000 es 0.000 et 0.000 er 0.004] ------- [16:255 -1:255 29 0] [0x2 2 1 [14 0] [76 4]] (REQUEST)
r 10.008537242 _23_ MAC  --- 0 AODV 48 [0 ffffffff 10 800] [energy 49.998536 ei 0.000 es 0.000 et 0.000 er 0.001] ------- [16:255 -1:255 29 0] [0x2 2 1 [14 0] [76 4]] (REQUEST)
r 10.008537242 _56_ MAC  --- 0 AODV 48 [0 ffffffff 10 800] [energy 49.996592 ei 0.000 es 0.000 et 0.000 er 0.003] ------- [16:255 -1:255 29 0] [0x2 2 1 [14 0] [76 4]] (REQUEST)
r 10.008537242 _20_ MAC  --- 0 AODV 48 [0 ffffffff 10 800] [energy 49.998536 ei 0.000 es 0.000 et 0.000 er 0.001] ------- [16:255 -1:255 29 0] [0x2 2 1 [14 0] [76 4]] (REQUEST)
r 10.008537255 _44_ MAC  --- 0 AODV 48 [0 ffffffff 10 800] [energy 49.996344 ei 0.000 es 0.000 et 0.000 er 0.003] ------- [16:255 -1:255 29 0] [0x2 2 1 [14 0] [76 4]] (REQUEST)
r 10.008537255 _4_ MAC  --- 0 AODV 48 [0 ffffffff 10 800] [energy 49.998536 ei 0.000 es 0.000 et 0.000 er 0.001] ------- [16:255 -1:255 29 0] [0x2 2 1 [14 0] [76 4]] (REQUEST)
r 10.008537261 _76_ MAC  --- 0 AODV 48 [0 ffffffff 10 800] [energy 49.996344 ei 0.000 es 0.000 et 0.000 er 0.003] ------- [16:255 -1:255 29 0] [0x2 2 1 [14 0] [76 4]] (REQUEST)
r 10.008537261 _71_ MAC  --- 0 AODV 48 [0 ffffffff 10 800] [energy 49.997072 ei 0.000 es 0.000 et 0.000 er 0.003] ------- [16:255 -1:255 29 0] [0x2 2 1 [14 0] [76 4]] (REQUEST)
r 10.008537261 _68_ MAC  --- 0 AODV 48 [0 ffffffff 10 800] [energy 49.997072 ei 0.000 es 0.000 et 0.000 er 0.003] ------- [16:255 -1:255 29 0] [0x2 2 1 [14 0] [76 4]] (REQUEST)
r 10.008537261 _9_ MAC  --- 0 AODV 48 [0 ffffffff 10 800] [energy 49.998536 ei 0.000 es 0.000 et 0.000 er 0.001] ------- [16:255 -1:255 29 0] [0x2 2 1 [14 0] [76 4]] (REQUEST)
r 10.008537279 _64_ MAC  --- 0 AODV 48 [0 ffffffff 10 800] [energy 49.995608 ei 0.000 es 0.000 et 0.000 er 0.004] ------- [16:255 -1:255 29 0] [0x2 2 1 [14 0] [76 4]] (REQUEST)
r 10.008537279 _0_ MAC  --- 0 AODV 48 [0 ffffffff 10 800] [energy 49.998536 ei 0.000 es 0.000 et 0.000 er 0.001] ------- [16:255 -1:255 29 0] [0x2 2 1 [14 0] [76 4]] (REQUEST)
s 10.010531302 _20_ MAC  --- 0 AODV 55 [0 ffffffff 14 800] [energy 49.998296 ei 0.000 es 0.000 et 0.000 er 0.002] ------- [20:255 -1:255 28 0] [0x2 3 1 [14 0] [76 4]] (REQUEST)
N -t 10.010531 -n 36 -e 49.993664
N -t 10.010531 -n 8 -e 49.997072
N -t 10.010531 -n 9 -e 49.997072
N -t 10.010531 -n 32 -e 49.998536
N -t 10.010531 -n 4 -e 49.997072
N -t 10.010531 -n 16 -e 49.994880
N -t 10.010531 -n 48 -e 49.997072
N -t 10.010531 -n 24 -e 49.998536
N -t 10.010531 -n 23 -e 49.997072
N -t 10.010531 -n 1 -e 49.998536
N -t 10.010531 -n 60 -e 49.996832
N -t 10.010531 -n 68 -e 49.995608
N -t 10.010531 -n 12 -e 49.998536
N -t 10.010531 -n 39 -e 49.997072
N -t 10.010531 -n 28 -e 49.993664
N -t 10.010531 -n 0 -e 49.997072
N -t 10.010531 -n 40 -e 49.998536
N -t 10.010531 -n 3 -e 49.998536
N -t 10.010531 -n 13 -e 49.998536
N -t 10.010531 -n 31 -e 49.998536
N -t 10.010531 -n 59 -e 49.997072
N -t 10.010531 -n 92 -e 49.998536
N -t 10.010531 -n 25 -e 49.998536
N -t 10.010531 -n 33 -e 49.998536
N -t 10.010531 -n 53 -e 49.998536
N -t 10.010531 -n 89 -e 49.998536
s 10.010598138 _60_ MAC  --- 0 AODV 55 [0 ffffffff 3c 800] [energy 49.996832 ei 0.000 es 0.000 et 0.000 er 0.003] ------- [60:255 -1:255 29 0] [0x2 2 1 [14 0] [76 4]] (REQUEST)
N -t 10.010598 -n 80 -e 49.998536
N -t 10.010598 -n 32 -e 49.998486
N -t 10.010598 -n 40 -e 49.998486
N -t 10.010598 -n 72 -e 49.998536
N -t 10.010598 -n 24 -e 49.998486
N -t 10.010598 -n 48 -e 49.997022
N -t 10.010598 -n 92 -e 49.998486
N -t 10.010598 -n 52 -e 49.998536
N -t 10.010598 -n 100 -e 49.998536
N -t 10.010598 -n 9 -e 49.997022
N -t 10.010598 -n 68 -e 49.995558
N -t 10.010598 -n 25 -e 49.998486
N -t 10.010598 -n 53 -e 49.998486
N -t 10.010598 -n 73 -e 49.998536
N -t 10.010598 -n 21 -e 49.998536
N -t 10.010598 -n 22 -e 49.998536
N -t 10.010598 -n 99 -e 49.995128
r 10.010898533 _83_ MAC  --- 0 AODV 48 [0 ffffffff 2c 800] [energy 49.996352 ei 0.000 es 0.000 et 0.000 er 0.004] ------- [44:255 -1:255 29 0] [0x2 2 1 [14 0] [76 4]] (REQUEST)
r 10.010898533 _64_ MAC  --- 0 AODV 48 [0 ffffffff 2c 800] [energy 49.995128 ei 0.000 es 0.000 et 0.000 er 0.005] ------- [44:255 -1:255 29 0] [0x2 2 1 [14 0] [76 4]] (REQUEST)
r 10.010898533 _28_ MAC  --- 0 AODV 48 [0 ffffffff 2c 800] [energy 49.993664 ei 0.000 es 0.000 et 0.000 er 0.006] ------- [44:255 -1:255 29 0] [0x2 2 1 [14 0] [76 4]] (REQUEST)
r 10.010898533 _76_ MAC  --- 0 AODV 48 [0 ffffffff 2c 800] [energy 49.996344 ei 0.000 es 0.000 et 0.000 er 0.003] ------- [44:255 -1:255 29 0] [0x2 2 1 [14 0] [76 4]] (REQUEST)
r 10.010898543 _51_ MAC  --- 0 AODV 48 [0 ffffffff 2c 800] [energy 49.998536 ei 0.000 es 0.000 et 0.000 er 0.001] ------- [44:255 -1:255 29 0] [0x2 2 1 [14 0] [76 4]] (REQUEST)
r 10.010898557 _99_ MAC  --- 0 AODV 48 [0 ffffffff 2c 800] [energy 49.995128 ei 0.000 es 0.000 et 0.000 er 0.005] ------- [44:255 -1:255 29 0] [0x2 2 1 [14 0] [76 4]] (REQUEST)
r 10.010898557 _16_ MAC  --- 0 AODV 48 [0 ffffffff 2c 800] [energy 49.994880 ei 0.000 es 0.000 et 0.000 er 0.005] ------- [44:255 -1:255 29 0] [0x2 2 1 [14 0] [76 4]] (REQUEST)
r 10.010898557 _88_ MAC  --- 0 AODV 48 [0 ffffffff 2c 800] [energy 49.997072 ei 0.000 es 0.000 et 0.000 er 0.003] ------- [44:255 -1:255 29 0] [0x2 2 1 [14 0] [76 4]] (REQUEST)
r 10.010898562 _71_ MAC  --- 0 AODV 48 [0 ffffffff 2c 800] [energy 49.997072 ei 0.000 es 0.000 et 0.000 er 0.003] ------- [44:255 -1:255 29 0] [0x2 2 1 [14 0] [76 4]] (REQUEST)
r 10.010898562 _36_ MAC  --- 0 AODV 48 [0 ffffffff 2c 800] [energy 49.993664 ei 0.000 es 0.000 et 0.000 er 0.006] ------- [44:255 -1:255 29 0] [0x2 2 1 [14 0] [76 4]] (REQUEST)
r 10.010898576 _59_ MAC  --- 0 AODV 48 [0 ffffffff 2c 800] [energy 49.997072 ei 0.000 es 0.000 et 0.000 er 0.003] ------- [44:255 -1:255 29 0] [0x2 2 1 [14 0] [76 4]] (REQUEST)
r 10.010898576 _48_ MAC  --- 0 AODV 48 [0 ffffffff 2c 800] [energy 49.997022 ei 0.000 es 0.000 et 0.000 er 0.003] ------- [44:255 -1:255 29 0] [0x2 2 1 [14 0] [76 4]] (REQUEST)
r 10.010898628 _67_ MAC  --- 0 AODV 48 [0 ffffffff 2c 800] [energy 49.998536 ei 0.000 es 0.000 et 0.000 er 0.001] ------- [44:255 -1:255 29 0] [0x2 2 1 [14 0] [76 4]] (REQUEST)
s 10.011127440 _83_ MAC  --- 0 AODV 55 [0 ffffffff 53 800] [energy 49.996352 ei 0.000 es 0.000 et 0.000 er 0.004] ------- [83:255 -1:255 29 0] [0x2 2 1 [14 0] [76 4]] (REQUEST)
N -t 10.011127 -n 99 -e 49.994731
N -t 10.011127 -n 44 -e 49.994880
N -t 10.011127 -n 51 -e 49.997072
N -t 10.011127 -n 39 -e 49.996625
N -t 10.011127 -n 76 -e 49.994880
N -t 10.011127 -n 91 -e 49.998536
N -t 10.011127 -n 59 -e 49.996625
N -t 10.011127 -n 56 -e 49.995128
N -t 10.011128 -n 79 -e 49.998536
N -t 10.011128 -n 23 -e 49.996625
N -t 10.011128 -n 92 -e 49.998089
s 10.011646434 _64_ MAC  --- 0 AODV 55 [0 ffffffff 40 800] [energy 49.994888 ei 0.000 es 0.000 et 0.000 er 0.005] ------- [64:255 -1:255 29 0] [0x2 2 1 [14 0] [76 4]] (REQUEST)
N -t 10.011646 -n 44 -e 49.994491
N -t 10.011646 -n 83 -e 49.995475
N -t 10.011646 -n 28 -e 49.992828
N -t 10.011646 -n 51 -e 49.996683
N -t 10.011646 -n 56 -e 49.994259
N -t 10.011647 -n 71 -e 49.995608
N -t 10.011647 -n 48 -e 49.996236
N -t 10.011647 -n 79 -e 49.998147
D 10.012483326 _32_ MAC  LQI 0 AODV 55 [0 ffffffff 14 800] [energy 49.998486 ei 0.000 es 0.000 et 0.000 er 0.002] ------- [20:255 -1:255 28 0] [0x2 3 1 [14 0] [76 4]] (REQUEST)
D 10.012483336 _48_ MAC  LQI 0 AODV 55 [0 ffffffff 14 800] [energy 49.995756 ei 0.000 es 0.000 et 0.000 er 0.004] ------- [20:255 -1:255 28 0] [0x2 3 1 [14 0] [76 4]] (REQUEST)
D 10.012483349 _23_ MAC  LQI 0 AODV 55 [0 ffffffff 14 800] [energy 49.996625 ei 0.000 es 0.000 et 0.000 er 0.003] ------- [20:255 -1:255 28 0] [0x2 3 1 [14 0] [76 4]] (REQUEST)
D 10.012483355 _28_ MAC  LQI 0 AODV 55 [0 ffffffff 14 800] [energy 49.992348 ei 0.000 es 0.000 et 0.000 er 0.008] ------- [20:255 -1:255 28 0] [0x2 3 1 [14 0] [76 4]] (REQUEST)
D 10.012483355 _40_ MAC  LQI 0 AODV 55 [0 ffffffff 14 800] [energy 49.998486 ei 0.000 es 0.000 et 0.000 er 0.002] ------- [20:255 -1:255 28 0] [0x2 3 1 [14 0] [76 4]] (REQUEST)
D 10.012550162 _72_ MAC  LQI 0 AODV 55 [0 ffffffff 3c 800] [energy 49.998536 ei 0.000 es 0.000 et 0.000 er 0.001] ------- [60:255 -1:255 29 0] [0x2 2 1 [14 0] [76 4]] (REQUEST)
D 10.012550172 _24_ MAC  LQI 0 AODV 55 [0 ffffffff 3c 800] [energy 49.998486 ei 0.000 es 0.000 et 0.000 er 0.002] ------- [60:255 -1:255 29 0] [0x2 2 1 [14 0] [76 4]] (REQUEST)
D 10.012550172 _92_ MAC  LQI 0 AODV 55 [0 ffffffff 3c 800] [energy 49.998089 ei 0.000 es 0.000 et 0.000 er 0.002] ------- [60:255 -1:255 29 0] [0x2 2 1 [14 0] [76 4]] (REQUEST)
D 10.012550191 _68_ MAC  LQI 0 AODV 55 [0 ffffffff 3c 800] [energy 49.995558 ei 0.000 es 0.000 et 0.000 er 0.004] ------- [60:255 -1:255 29 0] [0x2 2 1 [14 0] [76 4]] (REQUEST)
D 10.012550191 _25_ MAC  LQI 0 AODV 55 [0 ffffffff 3c 800] [energy 49.998486 ei 0.000 es 0.000 et 0.000 er 0.002] ------- [60:255 -1:255 29 0] [0x2 2 1 [14 0] [76 4]] (REQUEST)
D 10.012550213 _53_ MAC  LQI 0 AODV 55 [0 ffffffff 3c 800] [energy 49.998486 ei 0.000 es 0.000 et 0.000 er 0.002] ------- [60:255 -1:255 29 0] [0x2 2 1 [14 0] [76 4]] (REQUEST)
D 10.012550276 _99_ MAC  LQI 0 AODV 55 [0 ffffffff 3c 800] [energy 49.994731 ei 0.000 es 0.000 et 0.000 er 0.005] ------- [60:255 -1:255 29 0] [0x2 2 1 [14 0] [76 4]] (REQUEST)
D 10.013079463 _44_ MAC  LQI 0 AODV 55 [0 ffffffff 53 800] [energy 49.994491 ei 0.000 es 0.000 et 0.000 er 0.005] ------- [83:255 -1:255 29 0] [0x2 2 1 [14 0] [76 4]] (REQUEST)
D 10.013079463 _51_ MAC  LQI 0 AODV 55 [0 ffffffff 53 800] [energy 49.996683 ei 0.000 es 0.000 et 0.000 er 0.003] ------- [83:255 -1:255 29 0] [0x2 2 1 [14 0] [76 4]] (REQUEST)
D 10.013079487 _39_ MAC  LQI 0 AODV 55 [0 ffffffff 53 800] [energy 49.995185 ei 0.000 es 0.000 et 0.000 er 0.005] ------- [83:255 -1:255 29 0] [0x2 2 1 [14 0] [76 4]] (REQUEST)
D 10.013079492 _59_ MAC  LQI 0 AODV 55 [0 ffffffff 53 800] [energy 49.996625 ei 0.000 es 0.000 et 0.000 er 0.003] ------- [83:255 -1:255 29 0] [0x2 2 1 [14 0] [76 4]] (REQUEST)
D 10.013079492 _56_ MAC  LQI 0 AODV 55 [0 ffffffff 53 800] [energy 49.994259 ei 0.000 es 0.000 et 0.000 er 0.006] ------- [83:255 -1:255 29 0] [0x2 2 1 [14 0] [76 4]] (REQUEST)
r 10.013123326 _36_ MAC  --- 0 AODV 48 [0 ffffffff 14 800] [energy 49.993664 ei 0.000 es 0.000 et 0.000 er 0.006] ------- [20:255 -1:255 28 0] [0x2 3 1 [14 0] [76 4]] (REQUEST)
r 10.013123326 _8_ MAC  --- 0 AODV 48 [0 ffffffff 14 800] [energy 49.997072 ei 0.000 es 0.000 et 0.000 er 0.003] ------- [20:255 -1:255 28 0] [0x2 3 1 [14 0] [76 4]] (REQUEST)
r 10.013123326 _9_ MAC  --- 0 AODV 48 [0 ffffffff 14 800] [energy 49.996542 ei 0.000 es 0.000 et 0.000 er 0.003] ------- [20:255 -1:255 28 0] [0x2 3 1 [14 0] [76 4]] (REQUEST)
r 10.013123336 _4_ MAC  --- 0 AODV 48 [0 ffffffff 14 800] [energy 49.996592 ei 0.000 es 0.000 et 0.000 er 0.003] ------- [20:255 -1:255 28 0] [0x2 3 1 [14 0] [76 4]] (REQUEST)
r 10.013123336 _16_ MAC  --- 0 AODV 48 [0 ffffffff 14 800] [energy 49.994880 ei 0.000 es 0.000 et 0.000 er 0.005] ------- [20:255 -1:255 28 0] [0x2 3 1 [14 0] [76 4]] (REQUEST)
r 10.013123349 _1_ MAC  --- 0 AODV 48 [0 ffffffff 14 800] [energy 49.998536 ei 0.000 es 0.000 et 0.000 er 0.001] ------- [20:255 -1:255 28 0] [0x2 3 1 [14 0] [76 4]] (REQUEST)
r 10.013123355 _12_ MAC  --- 0 AODV 48 [0 ffffffff 14 800] [energy 49.998536 ei 0.000 es 0.000 et 0.000 er 0.001] ------- [20:255 -1:255 28 0] [0x2 3 1 [14 0] [76 4]] (REQUEST)
r 10.013123355 _0_ MAC  --- 0 AODV 48 [0 ffffffff 14 800] [energy 49.997072 ei 0.000 es 0.000 et 0.000 er 0.003] ------- [20:255 -1:255 28 0] [0x2 3 1 [14 0] [76 4]] (REQUEST)
r 10.013123369 _3_ MAC  --- 0 AODV 48 [0 ffffffff 14 800] [energy 49.998536 ei 0.000 es 0.000 et 0.000 er 0.001] ------- [20:255 -1:255 28 0] [0x2 3 1 [14 0] [76 4]] (REQUEST)
r 10.013123369 _13_ MAC  --- 0 AODV 48 [0 ffffffff 14 800] [energy 49.998536 ei 0.000 es 0.000 et 0.000 er 0.001] ------- [20:255 -1:255 28 0] [0x2 3 1 [14 0] [76 4]] (REQUEST)
r 10.013123373 _31_ MAC  --- 0 AODV 48 [0 ffffffff 14 800] [energy 49.998536 ei 0.000 es 0.000 et 0.000 er 0.001] ------- [20:255 -1:255 28 0] [0x2 3 1 [14 0] [76 4]] (REQUEST)
r 10.013123387 _33_ MAC  --- 0 AODV 48 [0 ffffffff 14 800] [energy 49.998536 ei 0.000 es 0.000 et 0.000 er 0.001] ------- [20:255 -1:255 28 0] [0x2 3 1 [14 0] [76 4]] (REQUEST)
r 10.013123451 _89_ MAC  --- 0 AODV 48 [0 ffffffff 14 800] [energy 49.998536 ei 0.000 es 0.000 et 0.000 er 0.001] ------- [20:255 -1:255 28 0] [0x2 3 1 [14 0] [76 4]] (REQUEST)
r 10.013190162 _80_ MAC  --- 0 AODV 48 [0 ffffffff 3c 800] [energy 49.998536 ei 0.000 es 0.000 et 0.000 er 0.001] ------- [60:255 -1:255 29 0] [0x2 2 1 [14 0] [76 4]] (REQUEST)
r 10.013190172 _52_ MAC  --- 0 AODV 48 [0 ffffffff 3c 800] [energy 49.998536 ei 0.000 es 0.000 et 0.000 er 0.001] ------- [60:255 -1:255 29 0] [0x2 2 1 [14 0] [76 4]] (REQUEST)
r 10.013190186 _100_ MAC  --- 0 AODV 48 [0 ffffffff 3c 800] [energy 49.998536 ei 0.000 es 0.000 et 0.000 er 0.001] ------- [60:255 -1:255 29 0] [0x2 2 1 [14 0] [76 4]] (REQUEST)
r 10.013190223 _73_ MAC  --- 0 AODV 48 [0 ffffffff 3c 800] [energy 49.998536 ei 0.000 es 0.000 et 0.000 er 0.001] ------- [60:255 -1:255 29 0] [0x2 2 1 [14 0] [76 4]] (REQUEST)
r 10.013190244 _21_ MAC  --- 0 AODV 48 [0 ffffffff 3c 800] [energy 49.998536 ei 0.000 es 0.000 et 0.000 er 0.001] ------- [60:255 -1:255 29 0] [0x2 2 1 [14 0] [76 4]] (REQUEST)
r 10.013190276 _22_ MAC  --- 0 AODV 48 [0 ffffffff 3c 800] [energy 49.998536 ei 0.000 es 0.000 et 0.000 er 0.001] ------- [60:255 -1:255 29 0] [0x2 2 1 [14 0] [76 4]] (REQUEST)
D 10.013598501 _71_ MAC  LQI 0 AODV 55 [0 ffffffff 40 800] [energy 49.995608 ei 0.000 es 0.000 et 0.000 er 0.004] ------- [64:255 -1:255 29 0] [0x2 2 1 [14 0] [76 4]] (REQUEST)
D 10.013598534 _79_ MAC  LQI 0 AODV 55 [0 ffffffff 40 800] [energy 49.998147 ei 0.000 es 0.000 et 0.000 er 0.002] ------- [64:255 -1:255 29 0] [0x2 2 1 [14 0] [76 4]] (REQUEST)
s 10.013689151 _9_ MAC  --- 0 AODV 55 [0 ffffffff 9 800] [energy 49.996302 ei 0.000 es 0.000 et 0.000 er 0.004] ------- [9:255 -1:255 28 0] [0x2 3 1 [14 0] [76 4]] (REQUEST)
N -t 10.013689 -n 20 -e 49.996344
N -t 10.013689 -n 4 -e 49.995128
N -t 10.013689 -n 1 -e 49.997072
N -t 10.013689 -n 24 -e 49.997022
N -t 10.013689 -n 8 -e 49.995608
N -t 10.013689 -n 5 -e 49.998536
N -t 10.013689 -n 36 -e 49.992200
N -t 10.013689 -n 12 -e 49.997072
N -t 10.013689 -n 10 -e 49.998536
N -t 10.013689 -n 3 -e 49.997072
N -t 10.013689 -n 23 -e 49.995161
N -t 10.013689 -n 2 -e 49.998536
N -t 10.013689 -n 60 -e 49.995351
N -t 10.013689 -n 13 -e 49.997072
N -t 10.013689 -n 80 -e 49.997072
N -t 10.013689 -n 47 -e 49.998536
r 10.013719487 _76_ MAC  --- 0 AODV 48 [0 ffffffff 53 800] [energy 49.994880 ei 0.000 es 0.000 et 0.000 er 0.005] ------- [83:255 -1:255 29 0] [0x2 2 1 [14 0] [76 4]] (REQUEST)
r 10.013719492 _91_ MAC  --- 0 AODV 48 [0 ffffffff 53 800] [energy 49.998536 ei 0.000 es 0.000 et 0.000 er 0.001] ------- [83:255 -1:255 29 0] [0x2 2 1 [14 0] [76 4]] (REQUEST)
s 10.013726096 _88_ MAC  --- 0 AODV 55 [0 ffffffff 58 800] [energy 49.996832 ei 0.000 es 0.000 et 0.000 er 0.003] ------- [88:255 -1:255 29 0] [0x2 2 1 [14 0] [76 4]] (REQUEST)
N -t 10.013726 -n 76 -e 49.993416
N -t 10.013726 -n 68 -e 49.994094
N -t 10.013726 -n 56 -e 49.992795
N -t 10.013726 -n 96 -e 49.997072
N -t 10.013726 -n 44 -e 49.993027
N -t 10.013726 -n 28 -e 49.990884
N -t 10.013726 -n 32 -e 49.997022
s 10.014274885 _59_ MAC  --- 0 AODV 55 [0 ffffffff 3b 800] [energy 49.996385 ei 0.000 es 0.000 et 0.000 er 0.004] ------- [59:255 -1:255 28 0] [0x2 3 1 [14 0] [76 4]] (REQUEST)
N -t 10.014275 -n 79 -e 49.996683
N -t 10.014275 -n 71 -e 49.994144
N -t 10.014275 -n 31 -e 49.997072
N -t 10.014275 -n 39 -e 49.993721
N -t 10.014275 -n 51 -e 49.995219
N -t 10.014275 -n 47 -e 49.998097
N -t 10.014275 -n 91 -e 49.997072
N -t 10.014275 -n 23 -e 49.994722
N -t 10.014275 -n 99 -e 49.993267
N -t 10.014275 -n 95 -e 49.998536
N -t 10.014275 -n 16 -e 49.993416
N -t 10.014275 -n 28 -e 49.990472
N -t 10.014275 -n 8 -e 49.995169
N -t 10.014275 -n 12 -e 49.996633
N -t 10.014275 -n 4 -e 49.994689
N -t 10.014275 -n 75 -e 49.998536
N -t 10.014275 -n 76 -e 49.993004
N -t 10.014275 -n 22 -e 49.997072
N -t 10.014275 -n 82 -e 49.998536
s 10.014856181 _52_ MAC  --- 0 AODV 55 [0 ffffffff 34 800] [energy 49.998296 ei 0.000 es 0.000 et 0.000 er 0.002] ------- [52:255 -1:255 28 0] [0x2 3 1 [14 0] [76 4]] (REQUEST)
N -t 10.014856 -n 72 -e 49.997072
N -t 10.014856 -n 25 -e 49.997022
N -t 10.014856 -n 84 -e 49.998536
N -t 10.014856 -n 13 -e 49.996197
N -t 10.014856 -n 60 -e 49.994476
N -t 10.014856 -n 100 -e 49.997072
N -t 10.014856 -n 41 -e 49.998536
N -t 10.014856 -n 92 -e 49.996625
N -t 10.014856 -n 24 -e 49.996147
N -t 10.014856 -n 53 -e 49.997022
N -t 10.014856 -n 5 -e 49.997661
N -t 10.014856 -n 80 -e 49.995717
N -t 10.014856 -n 32 -e 49.996174
N -t 10.014856 -n 33 -e 49.997072
N -t 10.014856 -n 9 -e 49.994939
N -t 10.014856 -n 77 -e 49.998536
N -t 10.014856 -n 57 -e 49.998536
s 10.015356584 _67_ MAC  --- 0 AODV 55 [0 ffffffff 43 800] [energy 49.998296 ei 0.000 es 0.000 et 0.000 er 0.002] ------- [67:255 -1:255 28 0] [0x2 3 1 [14 0] [76 4]] (REQUEST)
N -t 10.015357 -n 95 -e 49.997725
N -t 10.015357 -n 87 -e 49.998536
N -t 10.015357 -n 47 -e 49.997285
N -t 10.015357 -n 55 -e 49.998536
N -t 10.015357 -n 75 -e 49.997725
N -t 10.015357 -n 79 -e 49.995871
N -t 10.015357 -n 35 -e 49.998536
N -t 10.015357 -n 43 -e 49.998536
N -t 10.015357 -n 59 -e 49.995086
N -t 10.015357 -n 15 -e 49.998536
N -t 10.015357 -n 38 -e 49.998536
N -t 10.015357 -n 51 -e 49.994407
N -t 10.015357 -n 98 -e 49.998536
D 10.015641175 _4_ MAC  LQI 0 AODV 55 [0 ffffffff 9 800] [energy 49.994689 ei 0.000 es 0.000 et 0.000 er 0.005] ------- [9:255 -1:255 28 0] [0x2 3 1 [14 0] [76 4]] (REQUEST)
D 10.015641185 _8_ MAC  LQI 0 AODV 55 [0 ffffffff 9 800] [energy 49.994689 ei 0.000 es 0.000 et 0.000 er 0.005] ------- [9:255 -1:255 28 0] [0x2 3 1 [14 0] [76 4]] (REQUEST)
D 10.015641185 _5_ MAC  LQI 0 AODV 55 [0 ffffffff 9 800] [energy 49.997661 ei 0.000 es 0.000 et 0.000 er 0.002] ------- [9:255 -1:255 28 0] [0x2 3 1 [14 0] [76 4]] (REQUEST)
D 10.015641218 _80_ MAC  LQI 0 AODV 55 [0 ffffffff 9 800] [energy 49.995717 ei 0.000 es 0.000 et 0.000 er 0.004] ------- [9:255 -1:255 28 0] [0x2 3 1 [14 0] [76 4]] (REQUEST)
D 10.015678149 _28_ MAC  LQI 0 AODV 55 [0 ffffffff 58 800] [energy 49.990472 ei 0.000 es 0.000 et 0.000 er 0.010] ------- [88:255 -1:255 29 0] [0x2 2 1 [14 0] [76 4]] (REQUEST)
D 10.016226918 _51_ MAC  LQI 0 AODV 55 [0 ffffffff 3b 800] [energy 49.994407 ei 0.000 es 0.000 et 0.000 er 0.006] ------- [59:255 -1:255 28 0] [0x2 3 1 [14 0] [76 4]] (REQUEST)
D 10.016226918 _23_ MAC  LQI 0 AODV 55 [0 ffffffff 3b 800] [energy 49.994242 ei 0.000 es 0.000 et 0.000 er 0.006] ------- [59:255 -1:255 28 0] [0x2 3 1 [14 0] [76 4]] (REQUEST)
D 10.016226932 _16_ MAC  LQI 0 AODV 55 [0 ffffffff 3b 800] [energy 49.993416 ei 0.000 es 0.000 et 0.000 er 0.006] ------- [59:255 -1:255 28 0] [0x2 3 1 [14 0] [76 4]] (REQUEST)
D 10.016226937 _12_ MAC  LQI 0 AODV 55 [0 ffffffff 3b 800] [energy 49.996633 ei 0.000 es 0.000 et 0.000 er 0.003] ------- [59:255 -1:255 28 0] [0x2 3 1 [14 0] [76 4]] (REQUEST)
D 10.016226970 _75_ MAC  LQI 0 AODV 55 [0 ffffffff 3b 800] [energy 49.997725 ei 0.000 es 0.000 et 0.000 er 0.002] ------- [59:255 -1:255 28 0] [0x2 3 1 [14 0] [76 4]] (REQUEST)
D 10.016226970 _76_ MAC  LQI 0 AODV 55 [0 ffffffff 3b 800] [energy 49.993004 ei 0.000 es 0.000 et 0.000 er 0.007] ------- [59:255 -1:255 28 0] [0x2 3 1 [14 0] [76 4]] (REQUEST)
r 10.016281175 _20_ MAC  --- 0 AODV 48 [0 ffffffff 9 800] [energy 49.996344 ei 0.000 es 0.000 et 0.000 er 0.003] ------- [9:255 -1:255 28 0] [0x2 3 1 [14 0] [76 4]] (REQUEST)
r 10.016281175 _1_ MAC  --- 0 AODV 48 [0 ffffffff 9 800] [energy 49.996832 ei 0.000 es 0.000 et 0.000 er 0.003] ------- [9:255 -1:255 28 0] [0x2 3 1 [14 0] [76 4]] (REQUEST)
r 10.016281199 _36_ MAC  --- 0 AODV 48 [0 ffffffff 9 800] [energy 49.991720 ei 0.000 es 0.000 et 0.000 er 0.008] ------- [9:255 -1:255 28 0] [0x2 3 1 [14 0] [76 4]] (REQUEST)
r 10.016281199 _10_ MAC  --- 0 AODV 48 [0 ffffffff 9 800] [energy 49.998536 ei 0.000 es 0.000 et 0.000 er 0.001] ------- [9:255 -1:255 28 0] [0x2 3 1 [14 0] [76 4]] (REQUEST)
r 10.016281204 _3_ MAC  --- 0 AODV 48 [0 ffffffff 9 800] [energy 49.997072 ei 0.000 es 0.000 et 0.000 er 0.003] ------- [9:255 -1:255 28 0] [0x2 3 1 [14 0] [76 4]] (REQUEST)
r 10.016281204 _2_ MAC  --- 0 AODV 48 [0 ffffffff 9 800] [energy 49.998536 ei 0.000 es 0.000 et 0.000 er 0.001] ------- [9:255 -1:255 28 0] [0x2 3 1 [14 0] [76 4]] (REQUEST)
r 10.016318120 _68_ MAC  --- 0 AODV 48 [0 ffffffff 58 800] [energy 49.993614 ei 0.000 es 0.000 et 0.000 er 0.006] ------- [88:255 -1:255 29 0] [0x2 2 1 [14 0] [76 4]] (REQUEST)
r 10.016318129 _56_ MAC  --- 0 AODV 48 [0 ffffffff 58 800] [energy 49.992795 ei 0.000 es 0.000 et 0.000 er 0.007] ------- [88:255 -1:255 29 0] [0x2 2 1 [14 0] [76 4]] (REQUEST)
r 10.016318129 _96_ MAC  --- 0 AODV 48 [0 ffffffff 58 800] [energy 49.996832 ei 0.000 es 0.000 et 0.000 er 0.003] ------- [88:255 -1:255 29 0] [0x2 2 1 [14 0] [76 4]] (REQUEST)
r 10.016318143 _44_ MAC  --- 0 AODV 48 [0 ffffffff 58 800] [energy 49.993027 ei 0.000 es 0.000 et 0.000 er 0.006] ------- [88:255 -1:255 29 0] [0x2 2 1 [14 0] [76 4]] (REQUEST)
s 10.016379618 _96_ MAC  --- 0 AODV 55 [0 ffffffff 60 800] [energy 49.996832 ei 0.000 es 0.000 et 0.000 er 0.003] ------- [96:255 -1:255 29 0] [0x2 2 1 [14 0] [76 4]] (REQUEST)
N -t 10.016380 -n 68 -e 49.992150
N -t 10.016380 -n 80 -e 49.994094
N -t 10.016380 -n 48 -e 49.993332
N -t 10.016380 -n 88 -e 49.994880
N -t 10.016380 -n 92 -e 49.995482
N -t 10.016380 -n 56 -e 49.991331
N -t 10.016380 -n 36 -e 49.990256
N -t 10.016380 -n 76 -e 49.991540
N -t 10.016380 -n 32 -e 49.995032
N -t 10.016380 -n 9 -e 49.993796
N -t 10.016380 -n 2 -e 49.997072
D 10.016808214 _13_ MAC  LQI 0 AODV 55 [0 ffffffff 34 800] [energy 49.996197 ei 0.000 es 0.000 et 0.000 er 0.004] ------- [52:255 -1:255 28 0] [0x2 3 1 [14 0] [76 4]] (REQUEST)
D 10.016808214 _60_ MAC  LQI 0 AODV 55 [0 ffffffff 34 800] [energy 49.994476 ei 0.000 es 0.000 et 0.000 er 0.006] ------- [52:255 -1:255 28 0] [0x2 3 1 [14 0] [76 4]] (REQUEST)
D 10.016808228 _24_ MAC  LQI 0 AODV 55 [0 ffffffff 34 800] [energy 49.996147 ei 0.000 es 0.000 et 0.000 er 0.004] ------- [52:255 -1:255 28 0] [0x2 3 1 [14 0] [76 4]] (REQUEST)
D 10.016808228 _53_ MAC  LQI 0 AODV 55 [0 ffffffff 34 800] [energy 49.997022 ei 0.000 es 0.000 et 0.000 er 0.003] ------- [52:255 -1:255 28 0] [0x2 3 1 [14 0] [76 4]] (REQUEST)
r 10.016866908 _71_ MAC  --- 0 AODV 48 [0 ffffffff 3b 800] [energy 49.993664 ei 0.000 es 0.000 et 0.000 er 0.006] ------- [59:255 -1:255 28 0] [0x2 3 1 [14 0] [76 4]] (REQUEST)
r 10.016866908 _31_ MAC  --- 0 AODV 48 [0 ffffffff 3b 800] [energy 49.997072 ei 0.000 es 0.000 et 0.000 er 0.003] ------- [59:255 -1:255 28 0] [0x2 3 1 [14 0] [76 4]] (REQUEST)
r 10.016866908 _39_ MAC  --- 0 AODV 48 [0 ffffffff 3b 800] [energy 49.993241 ei 0.000 es 0.000 et 0.000 er 0.007] ------- [59:255 -1:255 28 0] [0x2 3 1 [14 0] [76 4]] (REQUEST)
r 10.016866918 _91_ MAC  --- 0 AODV 48 [0 ffffffff 3b 800] [energy 49.997072 ei 0.000 es 0.000 et 0.000 er 0.003] ------- [59:255 -1:255 28 0] [0x2 3 1 [14 0] [76 4]] (REQUEST)
r 10.016866932 _99_ MAC  --- 0 AODV 48 [0 ffffffff 3b 800] [energy 49.992787 ei 0.000 es 0.000 et 0.000 er 0.007] ------- [59:255 -1:255 28 0] [0x2 3 1 [14 0] [76 4]] (REQUEST)
r 10.016866979 _22_ MAC  --- 0 AODV 48 [0 ffffffff 3b 800] [energy 49.997072 ei 0.000 es 0.000 et 0.000 er 0.003] ------- [59:255 -1:255 28 0] [0x2 3 1 [14 0] [76 4]] (REQUEST)
r 10.016867003 _82_ MAC  --- 0 AODV 48 [0 ffffffff 3b 800] [energy 49.998536 ei 0.000 es 0.000 et 0.000 er 0.001] ------- [59:255 -1:255 28 0] [0x2 3 1 [14 0] [76 4]] (REQUEST)
D 10.017308607 _95_ MAC  LQI 0 AODV 55 [0 ffffffff 43 800] [energy 49.997725 ei 0.000 es 0.000 et 0.000 er 0.002] ------- [67:255 -1:255 28 0] [0x2 3 1 [14 0] [76 4]] (REQUEST)
D 10.017308607 _47_ MAC  LQI 0 AODV 55 [0 ffffffff 43 800] [energy 49.997285 ei 0.000 es 0.000 et 0.000 er 0.003] ------- [67:255 -1:255 28 0] [0x2 3 1 [14 0] [76 4]] (REQUEST)
D 10.017308617 _79_ MAC  LQI 0 AODV 55 [0 ffffffff 43 800] [energy 49.995871 ei 0.000 es 0.000 et 0.000 er 0.004] ------- [67:255 -1:255 28 0] [0x2 3 1 [14 0] [76 4]] (REQUEST)
r 10.017448205 _72_ MAC  --- 0 AODV 48 [0 ffffffff 34 800] [energy 49.997072 ei 0.000 es 0.000 et 0.000 er 0.003] ------- [52:255 -1:255 28 0] [0x2 3 1 [14 0] [76 4]] (REQUEST)
r 10.017448205 _25_ MAC  --- 0 AODV 48 [0 ffffffff 34 800] [energy 49.997022 ei 0.000 es 0.000 et 0.000 er 0.003] ------- [52:255 -1:255 28 0] [0x2 3 1 [14 0] [76 4]] (REQUEST)
r 10.017448205 _84_ MAC  --- 0 AODV 48 [0 ffffffff 34 800] [energy 49.998536 ei 0.000 es 0.000 et 0.000 er 0.001] ------- [52:255 -1:255 28 0] [0x2 3 1 [14 0] [76 4]] (REQUEST)
r 10.017448214 _100_ MAC  --- 0 AODV 48 [0 ffffffff 34 800] [energy 49.997072 ei 0.000 es 0.000 et 0.000 er 0.003] ------- [52:255 -1:255 28 0] [0x2 3 1 [14 0] [76 4]] (REQUEST)
r 10.017448214 _41_ MAC  --- 0 AODV 48 [0 ffffffff 34 800] [energy 49.998536 ei 0.000 es 0.000 et 0.000 er 0.001] ------- [52:255 -1:255 28 0] [0x2 3 1 [14 0] [76 4]] (REQUEST)
r 10.017448234 _33_ MAC  --- 0 AODV 48 [0 ffffffff 34 800] [energy 49.997072 ei 0.000 es 0.000 et 0.000 er 0.003] ------- [52:255 -1:255 28 0] [0x2 3 1 [14 0] [76 4]] (REQUEST)