+ 10 0 2 tcp 40 ------- 0 0.0 2.0 0 0
- 10 0 2 tcp 40 ------- 0 0.0 2.0 0 0
- 10.002064 0 2 tcp 40 ------- 0 0.0 2.0 0 0
- 10.004128 0 2 tcp 40 ------- 0 0.0 2.0 0 0
d 10.006192 0 2 tcp 40 ------- 0 0.0 2.0 0 0
+ 13 0 2 tcp 40 ---A--- 0 0.0 2.0 0 1
- 13 0 2 tcp 40 ---A--- 0 0.0 2.0 0 1
r 13.002064 0 2 tcp 40 ---A--- 0 0.0 2.0 0 1
+ 13.002064 2 0 ack 40 ------- 0 2.0 0.0 0 2
- 13.002064 2 0 ack 40 ------- 0 2.0 0.0 0 2
r 13.004128 2 0 ack 40 ------- 0 2.0 0.0 0 2
+ 13.004128 0 2 tcp 1040 ------- 0 0.0 2.0 1 3
- 13.004128 0 2 tcp 1040 ------- 0 0.0 2.0 1 3
- 13.007792 0 2 tcp 1040 ------- 0 0.0 2.0 1 3
r 13.011456 0 2 tcp 1040 ------- 0 0.0 2.0 1 3
+ 13.011456 2 0 ack 40 ------- 0 2.0 0.0 1 4
- 13.011456 2 0 ack 40 ------- 0 2.0 0.0 1 4
r 13.01352 2 0 ack 40 ------- 0 2.0 0.0 1 4
+ 13.01352 0 2 tcp 1040 ------- 0 0.0 2.0 2 5
- 13.01352 0 2 tcp 1040 ------- 0 0.0 2.0 2 5
+ 13.01352 0 2 tcp 1040 ------- 0 0.0 2.0 3 6
- 13.017184 0 2 tcp 1040 ------- 0 0.0 2.0 2 5
- 13.020848 0 2 tcp 1040 ------- 0 0.0 2.0 3 6
r 13.020848 0 2 tcp 1040 ------- 0 0.0 2.0 2 5
+ 13.020848 2 0 ack 40 ------- 0 2.0 0.0 2 7
- 13.020848 2 0 ack 40 ------- 0 2.0 0.0 2 7
r 13.022912 2 0 ack 40 ------- 0 2.0 0.0 2 7
+ 13.022912 0 2 tcp 1040 ------- 0 0.0 2.0 4 8
- 13.024512 0 2 tcp 1040 ------- 0 0.0 2.0 3 6
- 13.028176 0 2 tcp 1040 ------- 0 0.0 2.0 4 8
r 13.028176 0 2 tcp 1040 ------- 0 0.0 2.0 3 6
+ 13.028176 2 0 ack 40 ------- 0 2.0 0.0 3 9
- 13.028176 2 0 ack 40 ------- 0 2.0 0.0 3 9
r 13.03024 2 0 ack 40 ------- 0 2.0 0.0 3 9
+ 13.03024 0 2 tcp 1040 ------- 0 0.0 2.0 5 10
- 13.03184 0 2 tcp 1040 ------- 0 0.0 2.0 4 8
- 13.035504 0 2 tcp 1040 ------- 0 0.0 2.0 4 8
- 13.039168 0 2 tcp 1040 ------- 0 0.0 2.0 5 10
r 13.039168 0 2 tcp 1040 ------- 0 0.0 2.0 4 8
+ 13.039168 2 0 ack 40 ------- 0 2.0 0.0 4 11
- 13.039168 2 0 ack 40 ------- 0 2.0 0.0 4 11
r 13.041232 2 0 ack 40 ------- 0 2.0 0.0 4 11
+ 13.041232 0 2 tcp 1040 ------- 0 0.0 2.0 6 12
+ 13.041232 0 2 tcp 1040 ------- 0 0.0 2.0 7 13
- 13.042832 0 2 tcp 1040 ------- 0 0.0 2.0 5 10
- 13.046496 0 2 tcp 1040 ------- 0 0.0 2.0 6 12
r 13.046496 0 2 tcp 1040 ------- 0 0.0 2.0 5 10
+ 13.046496 2 0 ack 40 ------- 0 2.0 0.0 5 14
- 13.046496 2 0 ack 40 ------- 0 2.0 0.0 5 14
r 13.04856 2 0 ack 40 ------- 0 2.0 0.0 5 14
+ 13.04856 0 2 tcp 1040 ------- 0 0.0 2.0 8 15
- 13.05016 0 2 tcp 1040 ------- 0 0.0 2.0 6 12
- 13.053824 0 2 tcp 1040 ------- 0 0.0 2.0 6 12
d 13.057488 0 2 tcp 1040 ------- 0 0.0 2.0 6 12
- 13.057488 0 2 tcp 1040 ------- 0 0.0 2.0 7 13
- 13.061152 0 2 tcp 1040 ------- 0 0.0 2.0 8 15
r 13.061152 0 2 tcp 1040 ------- 0 0.0 2.0 7 13
+ 13.061152 2 0 ack 40 ------- 0 2.0 0.0 5 16
- 13.061152 2 0 ack 40 ------- 0 2.0 0.0 5 16
r 13.063216 2 0 ack 40 ------- 0 2.0 0.0 5 16
+ 13.063216 0 2 tcp 1040 ------- 0 0.0 2.0 9 17
- 13.064816 0 2 tcp 1040 ------- 0 0.0 2.0 8 15
- 13.06848 0 2 tcp 1040 ------- 0 0.0 2.0 8 15
d 13.072144 0 2 tcp 1040 ------- 0 0.0 2.0 8 15
- 13.072144 0 2 tcp 1040 ------- 0 0.0 2.0 9 17
r 13.075808 0 2 tcp 1040 ------- 0 0.0 2.0 9 17
+ 13.075808 2 0 ack 40 ------- 0 2.0 0.0 5 18
- 13.075808 2 0 ack 40 ------- 0 2.0 0.0 5 18
r 13.077872 2 0 ack 40 ------- 0 2.0 0.0 5 18
+ 13.077872 0 2 tcp 1040 ------- 0 0.0 2.0 10 19
- 13.077872 0 2 tcp 1040 ------- 0 0.0 2.0 10 19
- 13.081536 0 2 tcp 1040 ------- 0 0.0 2.0 10 19
r 13.0852 0 2 tcp 1040 ------- 0 0.0 2.0 10 19
+ 13.0852 2 0 ack 40 ------- 0 2.0 0.0 5 20
- 13.0852 2 0 ack 40 ------- 0 2.0 0.0 5 20
r 13.087264 2 0 ack 40 ------- 0 2.0 0.0 5 20
+ 13.087264 0 2 tcp 1040 ---A--- 0 0.0 2.0 6 21
- 13.087264 0 2 tcp 1040 ---A--- 0 0.0 2.0 6 21
r 13.090928 0 2 tcp 1040 ---A--- 0 0.0 2.0 6 21
+ 13.090928 2 0 ack 40 ------- 0 2.0 0.0 7 22
- 13.090928 2 0 ack 40 ------- 0 2.0 0.0 7 22
r 13.092992 2 0 ack 40 ------- 0 2.0 0.0 7 22
+ 13.092992 0 2 tcp 1040 ------- 0 0.0 2.0 8 23
- 13.092992 0 2 tcp 1040 ------- 0 0.0 2.0 8 23
+ 13.092992 0 2 tcp 1040 ------- 0 0.0 2.0 9 24
- 13.096656 0 2 tcp 1040 ------- 0 0.0 2.0 9 24
r 13.096656 0 2 tcp 1040 ------- 0 0.0 2.0 8 23
+ 13.096656 2 0 ack 40 ------- 0 2.0 0.0 10 25
- 13.096656 2 0 ack 40 ------- 0 2.0 0.0 10 25
r 13.09872 2 0 ack 40 ------- 0 2.0 0.0 10 25
+ 13.09872 0 2 tcp 1040 ------- 0 0.0 2.0 11 26
+ 13.09872 0 2 tcp 1040 ------- 0 0.0 2.0 12 27
- 13.10032 0 2 tcp 1040 ------- 0 0.0 2.0 9 24
- 13.103984 0 2 tcp 1040 ------- 0 0.0 2.0 9 24
- 13.107648 0 2 tcp 1040 ------- 0 0.0 2.0 11 26
r 13.107648 0 2 tcp 1040 ------- 0 0.0 2.0 9 24
+ 13.107648 2 0 ack 40 ------- 0 2.0 0.0 10 28
- 13.107648 2 0 ack 40 ------- 0 2.0 0.0 10 28
r 13.109712 2 0 ack 40 ------- 0 2.0 0.0 10 28
+ 13.109712 0 2 tcp 1040 ------- 0 0.0 2.0 13 29
- 13.111312 0 2 tcp 1040 ------- 0 0.0 2.0 12 27
r 13.111312 0 2 tcp 1040 ------- 0 0.0 2.0 11 26
+ 13.111312 2 0 ack 40 ------- 0 2.0 0.0 11 30
- 13.111312 2 0 ack 40 ------- 0 2.0 0.0 11 30
r 13.113376 2 0 ack 40 ------- 0 2.0 0.0 11 30
- 13.114976 0 2 tcp 1040 ------- 0 0.0 2.0 13 29
r 13.114976 0 2 tcp 1040 ------- 0 0.0 2.0 12 27
+ 13.114976 2 0 ack 40 ------- 0 2.0 0.0 12 31
- 13.114976 2 0 ack 40 ------- 0 2.0 0.0 12 31
r 13.11704 2 0 ack 40 ------- 0 2.0 0.0 12 31
+ 13.11704 0 2 tcp 1040 ------- 0 0.0 2.0 14 32
+ 13.11704 0 2 tcp 1040 ------- 0 0.0 2.0 15 33
- 13.11864 0 2 tcp 1040 ------- 0 0.0 2.0 14 32
r 13.11864 0 2 tcp 1040 ------- 0 0.0 2.0 13 29
+ 13.11864 2 0 ack 40 ------- 0 2.0 0.0 13 34
- 13.11864 2 0 ack 40 ------- 0 2.0 0.0 13 34
r 13.120704 2 0 ack 40 ------- 0 2.0 0.0 13 34
+ 13.120704 0 2 tcp 1040 ------- 0 0.0 2.0 16 35
- 13.122304 0 2 tcp 1040 ------- 0 0.0 2.0 14 32
- 13.125968 0 2 tcp 1040 ------- 0 0.0 2.0 14 32
d 13.129632 0 2 tcp 1040 ------- 0 0.0 2.0 14 32
- 13.129632 0 2 tcp 1040 ------- 0 0.0 2.0 15 33
d 13.133296 0 2 tcp 1040 ------- 0 0.0 2.0 15 33
- 13.133296 0 2 tcp 1040 ------- 0 0.0 2.0 16 35
r 13.13696 0 2 tcp 1040 ------- 0 0.0 2.0 16 35
+ 13.13696 2 0 ack 40 ------- 0 2.0 0.0 13 36
- 13.13696 2 0 ack 40 ------- 0 2.0 0.0 13 36
r 13.139024 2 0 ack 40 ------- 0 2.0 0.0 13 36
+ 13.139024 0 2 tcp 1040 ------- 0 0.0 2.0 17 37
- 13.139024 0 2 tcp 1040 ------- 0 0.0 2.0 17 37
r 13.142688 0 2 tcp 1040 ------- 0 0.0 2.0 17 37
+ 13.142688 2 0 ack 40 ------- 0 2.0 0.0 13 38
- 13.142688 2 0 ack 40 ------- 0 2.0 0.0 13 38
r 13.144752 2 0 ack 40 ------- 0 2.0 0.0 13 38
+ 13.144752 0 2 tcp 1040 ------- 0 0.0 2.0 18 39
- 13.144752 0 2 tcp 1040 ------- 0 0.0 2.0 18 39
r 13.148416 0 2 tcp 1040 ------- 0 0.0 2.0 18 39
+ 13.148416 2 0 ack 40 ------- 0 2.0 0.0 13 40
- 13.148416 2 0 ack 40 ------- 0 2.0 0.0 13 40
r 13.15048 2 0 ack 40 ------- 0 2.0 0.0 13 40
+ 13.15048 0 2 tcp 1040 ---A--- 0 0.0 2.0 14 41
- 13.15048 0 2 tcp 1040 ---A--- 0 0.0 2.0 14 41
- 13.154144 0 2 tcp 1040 ---A--- 0 0.0 2.0 14 41
- 13.157808 0 2 tcp 1040 ---A--- 0 0.0 2.0 14 41
d 13.161472 0 2 tcp 1040 ---A--- 0 0.0 2.0 14 41
+ 13.35048 0 2 tcp 1040 ---A--- 0 0.0 2.0 14 42
- 13.35048 0 2 tcp 1040 ---A--- 0 0.0 2.0 14 42
r 13.354144 0 2 tcp 1040 ---A--- 0 0.0 2.0 14 42
+ 13.354144 2 0 ack 40 ------- 0 2.0 0.0 14 43
- 13.354144 2 0 ack 40 ------- 0 2.0 0.0 14 43
r 13.356208 2 0 ack 40 ------- 0 2.0 0.0 14 43
+ 13.356208 0 2 tcp 1040 ------- 0 0.0 2.0 15 44
- 13.356208 0 2 tcp 1040 ------- 0 0.0 2.0 15 44
+ 13.356208 0 2 tcp 1040 ------- 0 0.0 2.0 16 45
- 13.359872 0 2 tcp 1040 ------- 0 0.0 2.0 15 44
- 13.363536 0 2 tcp 1040 ------- 0 0.0 2.0 15 44
- 13.3672 0 2 tcp 1040 ------- 0 0.0 2.0 16 45
r 13.3672 0 2 tcp 1040 ------- 0 0.0 2.0 15 44
+ 13.3672 2 0 ack 40 ------- 0 2.0 0.0 18 46
- 13.3672 2 0 ack 40 ------- 0 2.0 0.0 18 46
r 13.369264 2 0 ack 40 ------- 0 2.0 0.0 18 46
+ 13.369264 0 2 tcp 1040 ------- 0 0.0 2.0 19 47
+ 13.369264 0 2 tcp 1040 ------- 0 0.0 2.0 20 48
- 13.370864 0 2 tcp 1040 ------- 0 0.0 2.0 16 45
- 13.374528 0 2 tcp 1040 ------- 0 0.0 2.0 19 47
r 13.374528 0 2 tcp 1040 ------- 0 0.0 2.0 16 45
+ 13.374528 2 0 ack 40 ------- 0 2.0 0.0 18 49
- 13.374528 2 0 ack 40 ------- 0 2.0 0.0 18 49
r 13.376592 2 0 ack 40 ------- 0 2.0 0.0 18 49
+ 13.376592 0 2 tcp 1040 ------- 0 0.0 2.0 21 50
- 13.378192 0 2 tcp 1040 ------- 0 0.0 2.0 20 48
r 13.378192 0 2 tcp 1040 ------- 0 0.0 2.0 19 47
+ 13.378192 2 0 ack 40 ------- 0 2.0 0.0 19 51
- 13.378192 2 0 ack 40 ------- 0 2.0 0.0 19 51
r 13.380256 2 0 ack 40 ------- 0 2.0 0.0 19 51
- 13.381856 0 2 tcp 1040 ------- 0 0.0 2.0 21 50
r 13.381856 0 2 tcp 1040 ------- 0 0.0 2.0 20 48
+ 13.381856 2 0 ack 40 ------- 0 2.0 0.0 20 52
- 13.381856 2 0 ack 40 ------- 0 2.0 0.0 20 52
r 13.38392 2 0 ack 40 ------- 0 2.0 0.0 20 52
+ 13.38392 0 2 tcp 1040 ------- 0 0.0 2.0 22 53
+ 13.38392 0 2 tcp 1040 ------- 0 0.0 2.0 23 54
- 13.38552 0 2 tcp 1040 ------- 0 0.0 2.0 21 50
- 13.389184 0 2 tcp 1040 ------- 0 0.0 2.0 22 53
r 13.389184 0 2 tcp 1040 ------- 0 0.0 2.0 21 50
+ 13.389184 2 0 ack 40 ------- 0 2.0 0.0 21 55
- 13.389184 2 0 ack 40 ------- 0 2.0 0.0 21 55
r 13.391248 2 0 ack 40 ------- 0 2.0 0.0 21 55
+ 13.391248 0 2 tcp 1040 ------- 0 0.0 2.0 24 56
- 13.392848 0 2 tcp 1040 ------- 0 0.0 2.0 22 53
- 13.396512 0 2 tcp 1040 ------- 0 0.0 2.0 22 53
d 13.400176 0 2 tcp 1040 ------- 0 0.0 2.0 22 53
- 13.400176 0 2 tcp 1040 ------- 0 0.0 2.0 23 54
d 13.40384 0 2 tcp 1040 ------- 0 0.0 2.0 23 54
- 13.40384 0 2 tcp 1040 ------- 0 0.0 2.0 24 56
r 13.407504 0 2 tcp 1040 ------- 0 0.0 2.0 24 56
+ 13.407504 2 0 ack 40 ------- 0 2.0 0.0 21 57
- 13.407504 2 0 ack 40 ------- 0 2.0 0.0 21 57
r 13.409568 2 0 ack 40 ------- 0 2.0 0.0 21 57
+ 13.409568 0 2 tcp 1040 ------- 0 0.0 2.0 25 58
- 13.409568 0 2 tcp 1040 ------- 0 0.0 2.0 25 58
r 13.413232 0 2 tcp 1040 ------- 0 0.0 2.0 25 58
+ 13.413232 2 0 ack 40 ------- 0 2.0 0.0 21 59
- 13.413232 2 0 ack 40 ------- 0 2.0 0.0 21 59
r 13.415296 2 0 ack 40 ------- 0 2.0 0.0 21 59
+ 13.415296 0 2 tcp 1040 ------- 0 0.0 2.0 26 60
- 13.415296 0 2 tcp 1040 ------- 0 0.0 2.0 26 60
r 13.41896 0 2 tcp 1040 ------- 0 0.0 2.0 26 60
+ 13.41896 2 0 ack 40 ------- 0 2.0 0.0 21 61
- 13.41896 2 0 ack 40 ------- 0 2.0 0.0 21 61
r 13.421024 2 0 ack 40 ------- 0 2.0 0.0 21 61
+ 13.421024 0 2 tcp 1040 ---A--- 0 0.0 2.0 22 62
- 13.421024 0 2 tcp 1040 ---A--- 0 0.0 2.0 22 62
- 13.424688 0 2 tcp 1040 ---A--- 0 0.0 2.0 22 62
r 13.428352 0 2 tcp 1040 ---A--- 0 0.0 2.0 22 62
+ 13.428352 2 0 ack 40 ------- 0 2.0 0.0 22 63
- 13.428352 2 0 ack 40 ------- 0 2.0 0.0 22 63
r 13.430416 2 0 ack 40 ------- 0 2.0 0.0 22 63
+ 13.430416 0 2 tcp 1040 ------- 0 0.0 2.0 23 64
- 13.430416 0 2 tcp 1040 ------- 0 0.0 2.0 23 64
+ 13.430416 0 2 tcp 1040 ------- 0 0.0 2.0 24 65
- 13.43408 0 2 tcp 1040 ------- 0 0.0 2.0 23 64
- 13.437744 0 2 tcp 1040 ------- 0 0.0 2.0 24 65
r 13.437744 0 2 tcp 1040 ------- 0 0.0 2.0 23 64
+ 13.437744 2 0 ack 40 ------- 0 2.0 0.0 26 66
- 13.437744 2 0 ack 40 ------- 0 2.0 0.0 26 66
r 13.439808 2 0 ack 40 ------- 0 2.0 0.0 26 66
+ 13.439808 0 2 tcp 1040 ------- 0 0.0 2.0 27 67
+ 13.439808 0 2 tcp 1040 ------- 0 0.0 2.0 28 68
- 13.441408 0 2 tcp 1040 ------- 0 0.0 2.0 24 65
- 13.445072 0 2 tcp 1040 ------- 0 0.0 2.0 24 65
d 13.448736 0 2 tcp 1040 ------- 0 0.0 2.0 24 65
- 13.448736 0 2 tcp 1040 ------- 0 0.0 2.0 27 67
- 13.4524 0 2 tcp 1040 ------- 0 0.0 2.0 28 68
r 13.4524 0 2 tcp 1040 ------- 0 0.0 2.0 27 67
+ 13.4524 2 0 ack 40 ------- 0 2.0 0.0 27 69
- 13.4524 2 0 ack 40 ------- 0 2.0 0.0 27 69
r 13.454464 2 0 ack 40 ------- 0 2.0 0.0 27 69
+ 13.454464 0 2 tcp 1040 ------- 0 0.0 2.0 29 70
- 13.456064 0 2 tcp 1040 ------- 0 0.0 2.0 29 70
r 13.456064 0 2 tcp 1040 ------- 0 0.0 2.0 28 68
+ 13.456064 2 0 ack 40 ------- 0 2.0 0.0 28 71
- 13.456064 2 0 ack 40 ------- 0 2.0 0.0 28 71
r 13.458128 2 0 ack 40 ------- 0 2.0 0.0 28 71
+ 13.458128 0 2 tcp 1040 ------- 0 0.0 2.0 30 72
+ 13.458128 0 2 tcp 1040 ------- 0 0.0 2.0 31 73
- 13.459728 0 2 tcp 1040 ------- 0 0.0 2.0 30 72
r 13.459728 0 2 tcp 1040 ------- 0 0.0 2.0 29 70
+ 13.459728 2 0 ack 40 ------- 0 2.0 0.0 29 74
- 13.459728 2 0 ack 40 ------- 0 2.0 0.0 29 74
r 13.461792 2 0 ack 40 ------- 0 2.0 0.0 29 74
+ 13.461792 0 2 tcp 1040 ------- 0 0.0 2.0 32 75
- 13.463392 0 2 tcp 1040 ------- 0 0.0 2.0 30 72
- 13.467056 0 2 tcp 1040 ------- 0 0.0 2.0 30 72
- 13.47072 0 2 tcp 1040 ------- 0 0.0 2.0 31 73
r 13.47072 0 2 tcp 1040 ------- 0 0.0 2.0 30 72
+ 13.47072 2 0 ack 40 ------- 0 2.0 0.0 30 76
- 13.47072 2 0 ack 40 ------- 0 2.0 0.0 30 76
r 13.472784 2 0 ack 40 ------- 0 2.0 0.0 30 76
+ 13.472784 0 2 tcp 1040 ------- 0 0.0 2.0 33 77
- 13.474384 0 2 tcp 1040 ------- 0 0.0 2.0 32 75
r 13.474384 0 2 tcp 1040 ------- 0 0.0 2.0 31 73
+ 13.474384 2 0 ack 40 ------- 0 2.0 0.0 31 78
- 13.474384 2 0 ack 40 ------- 0 2.0 0.0 31 78
r 13.476448 2 0 ack 40 ------- 0 2.0 0.0 31 78
+ 13.476448 0 2 tcp 1040 ------- 0 0.0 2.0 34 79
+ 13.476448 0 2 tcp 1040 ------- 0 0.0 2.0 35 80
- 13.478048 0 2 tcp 1040 ------- 0 0.0 2.0 33 77
r 13.478048 0 2 tcp 1040 ------- 0 0.0 2.0 32 75
+ 13.478048 2 0 ack 40 ------- 0 2.0 0.0 32 81
- 13.478048 2 0 ack 40 ------- 0 2.0 0.0 32 81
r 13.480112 2 0 ack 40 ------- 0 2.0 0.0 32 81
+ 13.480112 0 2 tcp 1040 ------- 0 0.0 2.0 36 82
- 13.481712 0 2 tcp 1040 ------- 0 0.0 2.0 34 79
r 13.481712 0 2 tcp 1040 ------- 0 0.0 2.0 33 77
+ 13.481712 2 0 ack 40 ------- 0 2.0 0.0 33 83
- 13.481712 2 0 ack 40 ------- 0 2.0 0.0 33 83
r 13.483776 2 0 ack 40 ------- 0 2.0 0.0 33 83
+ 13.483776 0 2 tcp 1040 ------- 0 0.0 2.0 37 84
- 13.485376 0 2 tcp 1040 ------- 0 0.0 2.0 35 80
r 13.485376 0 2 tcp 1040 ------- 0 0.0 2.0 34 79
+ 13.485376 2 0 ack 40 ------- 0 2.0 0.0 34 85
- 13.485376 2 0 ack 40 ------- 0 2.0 0.0 34 85
r 13.48744 2 0 ack 40 ------- 0 2.0 0.0 34 85
+ 13.48744 0 2 tcp 1040 ------- 0 0.0 2.0 38 86
- 13.48904 0 2 tcp 1040 ------- 0 0.0 2.0 36 82
r 13.48904 0 2 tcp 1040 ------- 0 0.0 2.0 35 80
+ 13.48904 2 0 ack 40 ------- 0 2.0 0.0 35 87
- 13.48904 2 0 ack 40 ------- 0 2.0 0.0 35 87
r 13.491104 2 0 ack 40 ------- 0 2.0 0.0 35 87
+ 13.491104 0 2 tcp 1040 ------- 0 0.0 2.0 39 88
- 13.492704 0 2 tcp 1040 ------- 0 0.0 2.0 37 84
r 13.492704 0 2 tcp 1040 ------- 0 0.0 2.0 36 82
+ 13.492704 2 0 ack 40 ------- 0 2.0 0.0 36 89
- 13.492704 2 0 ack 40 ------- 0 2.0 0.0 36 89
r 13.494768 2 0 ack 40 ------- 0 2.0 0.0 36 89
+ 13.494768 0 2 tcp 1040 ------- 0 0.0 2.0 40 90
+ 13.494768 0 2 tcp 1040 ------- 0 0.0 2.0 41 91
- 13.496368 0 2 tcp 1040 ------- 0 0.0 2.0 37 84
- 13.500032 0 2 tcp 1040 ------- 0 0.0 2.0 38 86
r 13.500032 0 2 tcp 1040 ------- 0 0.0 2.0 37 84
+ 13.500032 2 0 ack 40 ------- 0 2.0 0.0 37 92
- 13.500032 2 0 ack 40 ------- 0 2.0 0.0 37 92
r 13.502096 2 0 ack 40 ------- 0 2.0 0.0 37 92
+ 13.502096 0 2 tcp 1040 ------- 0 0.0 2.0 42 93
- 13.503696 0 2 tcp 1040 ------- 0 0.0 2.0 39 88
r 13.503696 0 2 tcp 1040 ------- 0 0.0 2.0 38 86
+ 13.503696 2 0 ack 40 ------- 0 2.0 0.0 38 94
- 13.503696 2 0 ack 40 ------- 0 2.0 0.0 38 94
r 13.50576 2 0 ack 40 ------- 0 2.0 0.0 38 94
+ 13.50576 0 2 tcp 1040 ------- 0 0.0 2.0 43 95
- 13.50736 0 2 tcp 1040 ------- 0 0.0 2.0 40 90
r 13.50736 0 2 tcp 1040 ------- 0 0.0 2.0 39 88
+ 13.50736 2 0 ack 40 ------- 0 2.0 0.0 39 96
- 13.50736 2 0 ack 40 ------- 0 2.0 0.0 39 96
r 13.509424 2 0 ack 40 ------- 0 2.0 0.0 39 96
+ 13.509424 0 2 tcp 1040 ------- 0 0.0 2.0 44 97
- 13.511024 0 2 tcp 1040 ------- 0 0.0 2.0 41 91
r 13.511024 0 2 tcp 1040 ------- 0 0.0 2.0 40 90
+ 13.511024 2 0 ack 40 ------- 0 2.0 0.0 40 98
- 13.511024 2 0 ack 40 ------- 0 2.0 0.0 40 98
r 13.513088 2 0 ack 40 ------- 0 2.0 0.0 40 98
+ 13.513088 0 2 tcp 1040 ------- 0 0.0 2.0 45 99
- 13.514688 0 2 tcp 1040 ------- 0 0.0 2.0 41 91
- 13.518352 0 2 tcp 1040 ------- 0 0.0 2.0 41 91
- 13.522016 0 2 tcp 1040 ------- 0 0.0 2.0 42 93
r 13.522016 0 2 tcp 1040 ------- 0 0.0 2.0 41 91
+ 13.522016 2 0 ack 40 ------- 0 2.0 0.0 41 100
- 13.522016 2 0 ack 40 ------- 0 2.0 0.0 41 100
r 13.52408 2 0 ack 40 ------- 0 2.0 0.0 41 100
+ 13.52408 0 2 tcp 1040 ------- 0 0.0 2.0 46 101
+ 13.52408 0 2 tcp 1040 ------- 0 0.0 2.0 47 102
- 13.52568 0 2 tcp 1040 ------- 0 0.0 2.0 42 93
- 13.529344 0 2 tcp 1040 ------- 0 0.0 2.0 42 93
d 13.533008 0 2 tcp 1040 ------- 0 0.0 2.0 42 93
- 13.533008 0 2 tcp 1040 ------- 0 0.0 2.0 43 95
d 13.536672 0 2 tcp 1040 ------- 0 0.0 2.0 43 95
- 13.536672 0 2 tcp 1040 ------- 0 0.0 2.0 44 97
- 13.540336 0 2 tcp 1040 ------- 0 0.0 2.0 45 99
r 13.540336 0 2 tcp 1040 ------- 0 0.0 2.0 44 97
+ 13.540336 2 0 ack 40 ------- 0 2.0 0.0 41 103
- 13.540336 2 0 ack 40 ------- 0 2.0 0.0 41 103
r 13.5424 2 0 ack 40 ------- 0 2.0 0.0 41 103
+ 13.5424 0 2 tcp 1040 ------- 0 0.0 2.0 48 104
- 13.544 0 2 tcp 1040 ------- 0 0.0 2.0 46 101
r 13.544 0 2 tcp 1040 ------- 0 0.0 2.0 45 99
+ 13.544 2 0 ack 40 ------- 0 2.0 0.0 41 105
- 13.544 2 0 ack 40 ------- 0 2.0 0.0 41 105
r 13.546064 2 0 ack 40 ------- 0 2.0 0.0 41 105
+ 13.546064 0 2 tcp 1040 ------- 0 0.0 2.0 49 106
- 13.547664 0 2 tcp 1040 ------- 0 0.0 2.0 46 101
- 13.551328 0 2 tcp 1040 ------- 0 0.0 2.0 46 101
d 13.554992 0 2 tcp 1040 ------- 0 0.0 2.0 46 101
- 13.554992 0 2 tcp 1040 ------- 0 0.0 2.0 47 102
d 13.558656 0 2 tcp 1040 ------- 0 0.0 2.0 47 102
- 13.558656 0 2 tcp 1040 ------- 0 0.0 2.0 48 104
d 13.56232 0 2 tcp 1040 ------- 0 0.0 2.0 48 104
- 13.56232 0 2 tcp 1040 ------- 0 0.0 2.0 49 106
r 13.565984 0 2 tcp 1040 ------- 0 0.0 2.0 49 106
+ 13.565984 2 0 ack 40 ------- 0 2.0 0.0 41 107
- 13.565984 2 0 ack 40 ------- 0 2.0 0.0 41 107
r 13.568048 2 0 ack 40 ------- 0 2.0 0.0 41 107
+ 13.568048 0 2 tcp 1040 ---A--- 0 0.0 2.0 42 108
- 13.568048 0 2 tcp 1040 ---A--- 0 0.0 2.0 42 108
r 13.571712 0 2 tcp 1040 ---A--- 0 0.0 2.0 42 108
+ 13.571712 2 0 ack 40 ------- 0 2.0 0.0 42 109
- 13.571712 2 0 ack 40 ------- 0 2.0 0.0 42 109
r 13.573776 2 0 ack 40 ------- 0 2.0 0.0 42 109
+ 13.573776 0 2 tcp 1040 ------- 0 0.0 2.0 43 110
- 13.573776 0 2 tcp 1040 ------- 0 0.0 2.0 43 110
+ 13.573776 0 2 tcp 1040 ------- 0 0.0 2.0 44 111
- 13.57744 0 2 tcp 1040 ------- 0 0.0 2.0 44 111
r 13.57744 0 2 tcp 1040 ------- 0 0.0 2.0 43 110
+ 13.57744 2 0 ack 40 ------- 0 2.0 0.0 45 112
- 13.57744 2 0 ack 40 ------- 0 2.0 0.0 45 112
r 13.579504 2 0 ack 40 ------- 0 2.0 0.0 45 112
+ 13.579504 0 2 tcp 1040 ------- 0 0.0 2.0 46 113
+ 13.579504 0 2 tcp 1040 ------- 0 0.0 2.0 47 114
+ 13.579504 0 2 tcp 1040 ------- 0 0.0 2.0 48 115
- 13.581104 0 2 tcp 1040 ------- 0 0.0 2.0 44 111
- 13.584768 0 2 tcp 1040 ------- 0 0.0 2.0 44 111
- 13.588432 0 2 tcp 1040 ------- 0 0.0 2.0 46 113
r 13.588432 0 2 tcp 1040 ------- 0 0.0 2.0 44 111
+ 13.588432 2 0 ack 40 ------- 0 2.0 0.0 45 116
- 13.588432 2 0 ack 40 ------- 0 2.0 0.0 45 116
r 13.590496 2 0 ack 40 ------- 0 2.0 0.0 45 116
+ 13.590496 0 2 tcp 1040 ------- 0 0.0 2.0 49 117
- 13.592096 0 2 tcp 1040 ------- 0 0.0 2.0 47 114
r 13.592096 0 2 tcp 1040 ------- 0 0.0 2.0 46 113
+ 13.592096 2 0 ack 40 ------- 0 2.0 0.0 46 118
- 13.592096 2 0 ack 40 ------- 0 2.0 0.0 46 118
r 13.59416 2 0 ack 40 ------- 0 2.0 0.0 46 118
- 13.59576 0 2 tcp 1040 ------- 0 0.0 2.0 48 115
r 13.59576 0 2 tcp 1040 ------- 0 0.0 2.0 47 114
+ 13.59576 2 0 ack 40 ------- 0 2.0 0.0 47 119
- 13.59576 2 0 ack 40 ------- 0 2.0 0.0 47 119
r 13.597824 2 0 ack 40 ------- 0 2.0 0.0 47 119
+ 13.597824 0 2 tcp 1040 ------- 0 0.0 2.0 50 120
- 13.599424 0 2 tcp 1040 ------- 0 0.0 2.0 49 117
r 13.599424 0 2 tcp 1040 ------- 0 0.0 2.0 48 115
+ 13.599424 2 0 ack 40 ------- 0 2.0 0.0 49 121
- 13.599424 2 0 ack 40 ------- 0 2.0 0.0 49 121
r 13.601488 2 0 ack 40 ------- 0 2.0 0.0 49 121
+ 13.601488 0 2 tcp 1040 ------- 0 0.0 2.0 51 122
+ 13.601488 0 2 tcp 1040 ------- 0 0.0 2.0 52 123
- 13.603088 0 2 tcp 1040 ------- 0 0.0 2.0 49 117
- 13.606752 0 2 tcp 1040 ------- 0 0.0 2.0 49 117
d 13.610416 0 2 tcp 1040 ------- 0 0.0 2.0 49 117
- 13.610416 0 2 tcp 1040 ------- 0 0.0 2.0 50 120
d 13.61408 0 2 tcp 1040 ------- 0 0.0 2.0 50 120
- 13.61408 0 2 tcp 1040 ------- 0 0.0 2.0 51 122
d 13.617744 0 2 tcp 1040 ------- 0 0.0 2.0 51 122
- 13.617744 0 2 tcp 1040 ------- 0 0.0 2.0 52 123
d 13.621408 0 2 tcp 1040 ------- 0 0.0 2.0 52 123
+ 13.801488 0 2 tcp 1040 ---A--- 0 0.0 2.0 50 124
- 13.801488 0 2 tcp 1040 ---A--- 0 0.0 2.0 50 124
d 13.805152 0 2 tcp 1040 ---A--- 0 0.0 2.0 50 124
+ 14.201488 0 2 tcp 1040 ---A--- 0 0.0 2.0 50 125
- 14.201488 0 2 tcp 1040 ---A--- 0 0.0 2.0 50 125
r 14.205152 0 2 tcp 1040 ---A--- 0 0.0 2.0 50 125
+ 14.205152 2 0 ack 40 ------- 0 2.0 0.0 50 126
- 14.205152 2 0 ack 40 ------- 0 2.0 0.0 50 126
r 14.207216 2 0 ack 40 ------- 0 2.0 0.0 50 126
+ 14.207216 0 2 tcp 1040 ------- 0 0.0 2.0 51 127
- 14.207216 0 2 tcp 1040 ------- 0 0.0 2.0 51 127
+ 14.207216 0 2 tcp 1040 ------- 0 0.0 2.0 52 128
- 14.21088 0 2 tcp 1040 ------- 0 0.0 2.0 51 127
- 14.214544 0 2 tcp 1040 ------- 0 0.0 2.0 51 127
d 14.218208 0 2 tcp 1040 ------- 0 0.0 2.0 51 127
- 14.218208 0 2 tcp 1040 ------- 0 0.0 2.0 52 128
d 14.221872 0 2 tcp 1040 ------- 0 0.0 2.0 52 128
+ 15.007216 0 2 tcp 1040 ---A--- 0 0.0 2.0 51 129
- 15.007216 0 2 tcp 1040 ---A--- 0 0.0 2.0 51 129
r 15.01088 0 2 tcp 1040 ---A--- 0 0.0 2.0 51 129
+ 15.01088 2 0 ack 40 ------- 0 2.0 0.0 51 130
- 15.01088 2 0 ack 40 ------- 0 2.0 0.0 51 130
r 15.012944 2 0 ack 40 ------- 0 2.0 0.0 51 130
+ 15.012944 0 2 tcp 1040 ------- 0 0.0 2.0 52 131
- 15.012944 0 2 tcp 1040 ------- 0 0.0 2.0 52 131
+ 15.012944 0 2 tcp 1040 ------- 0 0.0 2.0 53 132
- 15.016608 0 2 tcp 1040 ------- 0 0.0 2.0 52 131
- 15.020272 0 2 tcp 1040 ------- 0 0.0 2.0 53 132
r 15.020272 0 2 tcp 1040 ------- 0 0.0 2.0 52 131
+ 15.020272 2 0 ack 40 ------- 0 2.0 0.0 52 133
- 15.020272 2 0 ack 40 ------- 0 2.0 0.0 52 133
r 15.022336 2 0 ack 40 ------- 0 2.0 0.0 52 133
+ 15.022336 0 2 tcp 1040 ------- 0 0.0 2.0 54 134
- 15.023936 0 2 tcp 1040 ------- 0 0.0 2.0 54 134
r 15.023936 0 2 tcp 1040 ------- 0 0.0 2.0 53 132
+ 15.023936 2 0 ack 40 ------- 0 2.0 0.0 53 135
- 15.023936 2 0 ack 40 ------- 0 2.0 0.0 53 135
r 15.026 2 0 ack 40 ------- 0 2.0 0.0 53 135
+ 15.026 0 2 tcp 1040 ------- 0 0.0 2.0 55 136
- 15.0276 0 2 tcp 1040 ------- 0 0.0 2.0 55 136
r 15.0276 0 2 tcp 1040 ------- 0 0.0 2.0 54 134
+ 15.0276 2 0 ack 40 ------- 0 2.0 0.0 54 137
- 15.0276 2 0 ack 40 ------- 0 2.0 0.0 54 137
r 15.029664 2 0 ack 40 ------- 0 2.0 0.0 54 137
+ 15.029664 0 2 tcp 1040 ------- 0 0.0 2.0 56 138
+ 15.029664 0 2 tcp 1040 ------- 0 0.0 2.0 57 139
- 15.031264 0 2 tcp 1040 ------- 0 0.0 2.0 55 136
- 15.034928 0 2 tcp 1040 ------- 0 0.0 2.0 55 136
d 15.038592 0 2 tcp 1040 ------- 0 0.0 2.0 55 136
- 15.038592 0 2 tcp 1040 ------- 0 0.0 2.0 56 138
d 15.042256 0 2 tcp 1040 ------- 0 0.0 2.0 56 138
- 15.042256 0 2 tcp 1040 ------- 0 0.0 2.0 57 139
r 15.04592 0 2 tcp 1040 ------- 0 0.0 2.0 57 139
+ 15.04592 2 0 ack 40 ------- 0 2.0 0.0 54 140
- 15.04592 2 0 ack 40 ------- 0 2.0 0.0 54 140
r 15.047984 2 0 ack 40 ------- 0 2.0 0.0 54 140
+ 15.047984 0 2 tcp 1040 ------- 0 0.0 2.0 58 141
- 15.047984 0 2 tcp 1040 ------- 0 0.0 2.0 58 141
- 15.051648 0 2 tcp 1040 ------- 0 0.0 2.0 58 141
r 15.055312 0 2 tcp 1040 ------- 0 0.0 2.0 58 141
+ 15.055312 2 0 ack 40 ------- 0 2.0 0.0 54 142
- 15.055312 2 0 ack 40 ------- 0 2.0 0.0 54 142
r 15.057376 2 0 ack 40 ------- 0 2.0 0.0 54 142
+ 15.057376 0 2 tcp 1040 ------- 0 0.0 2.0 59 143
- 15.057376 0 2 tcp 1040 ------- 0 0.0 2.0 59 143
r 15.06104 0 2 tcp 1040 ------- 0 0.0 2.0 59 143
+ 15.06104 2 0 ack 40 ------- 0 2.0 0.0 54 144
- 15.06104 2 0 ack 40 ------- 0 2.0 0.0 54 144
r 15.063104 2 0 ack 40 ------- 0 2.0 0.0 54 144
+ 15.063104 0 2 tcp 1040 ---A--- 0 0.0 2.0 55 145
- 15.063104 0 2 tcp 1040 ---A--- 0 0.0 2.0 55 145
- 15.066768 0 2 tcp 1040 ---A--- 0 0.0 2.0 55 145
r 15.070432 0 2 tcp 1040 ---A--- 0 0.0 2.0 55 145
+ 15.070432 2 0 ack 40 ------- 0 2.0 0.0 55 146
- 15.070432 2 0 ack 40 ------- 0 2.0 0.0 55 146
r 15.072496 2 0 ack 40 ------- 0 2.0 0.0 55 146
+ 15.072496 0 2 tcp 1040 ------- 0 0.0 2.0 56 147
- 15.072496 0 2 tcp 1040 ------- 0 0.0 2.0 56 147
+ 15.072496 0 2 tcp 1040 ------- 0 0.0 2.0 57 148
- 15.07616 0 2 tcp 1040 ------- 0 0.0 2.0 56 147
- 15.079824 0 2 tcp 1040 ------- 0 0.0 2.0 56 147
- 15.083488 0 2 tcp 1040 ------- 0 0.0 2.0 57 148
r 15.083488 0 2 tcp 1040 ------- 0 0.0 2.0 56 147
+ 15.083488 2 0 ack 40 ------- 0 2.0 0.0 59 149
- 15.083488 2 0 ack 40 ------- 0 2.0 0.0 59 149
r 15.085552 2 0 ack 40 ------- 0 2.0 0.0 59 149
+ 15.085552 0 2 tcp 1040 ------- 0 0.0 2.0 60 150
+ 15.085552 0 2 tcp 1040 ------- 0 0.0 2.0 61 151
- 15.087152 0 2 tcp 1040 ------- 0 0.0 2.0 60 150
r 15.087152 0 2 tcp 1040 ------- 0 0.0 2.0 57 148
+ 15.087152 2 0 ack 40 ------- 0 2.0 0.0 59 152
- 15.087152 2 0 ack 40 ------- 0 2.0 0.0 59 152
r 15.089216 2 0 ack 40 ------- 0 2.0 0.0 59 152
+ 15.089216 0 2 tcp 1040 ------- 0 0.0 2.0 62 153
- 15.090816 0 2 tcp 1040 ------- 0 0.0 2.0 60 150
- 15.09448 0 2 tcp 1040 ------- 0 0.0 2.0 60 150
d 15.098144 0 2 tcp 1040 ------- 0 0.0 2.0 60 150
- 15.098144 0 2 tcp 1040 ------- 0 0.0 2.0 61 151
- 15.101808 0 2 tcp 1040 ------- 0 0.0 2.0 62 153
r 15.101808 0 2 tcp 1040 ------- 0 0.0 2.0 61 151
+ 15.101808 2 0 ack 40 ------- 0 2.0 0.0 59 154
- 15.101808 2 0 ack 40 ------- 0 2.0 0.0 59 154
r 15.103872 2 0 ack 40 ------- 0 2.0 0.0 59 154
+ 15.103872 0 2 tcp 1040 ------- 0 0.0 2.0 63 155
- 15.105472 0 2 tcp 1040 ------- 0 0.0 2.0 62 153
- 15.109136 0 2 tcp 1040 ------- 0 0.0 2.0 63 155
r 15.109136 0 2 tcp 1040 ------- 0 0.0 2.0 62 153
+ 15.109136 2 0 ack 40 ------- 0 2.0 0.0 59 156
- 15.109136 2 0 ack 40 ------- 0 2.0 0.0 59 156
r 15.1112 2 0 ack 40 ------- 0 2.0 0.0 59 156
r 15.1128 0 2 tcp 1040 ------- 0 0.0 2.0 63 155
+ 15.1128 2 0 ack 40 ------- 0 2.0 0.0 59 157
- 15.1128 2 0 ack 40 ------- 0 2.0 0.0 59 157
r 15.114864 2 0 ack 40 ------- 0 2.0 0.0 59 157
+ 15.285552 0 2 tcp 1040 ---A--- 0 0.0 2.0 60 158
- 15.285552 0 2 tcp 1040 ---A--- 0 0.0 2.0 60 158
r 15.289216 0 2 tcp 1040 ---A--- 0 0.0 2.0 60 158
+ 15.289216 2 0 ack 40 ------- 0 2.0 0.0 63 159
- 15.289216 2 0 ack 40 ------- 0 2.0 0.0 63 159
r 15.29128 2 0 ack 40 ------- 0 2.0 0.0 63 159
+ 15.29128 0 2 tcp 1040 ------- 0 0.0 2.0 64 160
- 15.29128 0 2 tcp 1040 ------- 0 0.0 2.0 64 160
+ 15.29128 0 2 tcp 1040 ------- 0 0.0 2.0 65 161
- 15.294944 0 2 tcp 1040 ------- 0 0.0 2.0 64 160
- 15.298608 0 2 tcp 1040 ------- 0 0.0 2.0 65 161
r 15.298608 0 2 tcp 1040 ------- 0 0.0 2.0 64 160
+ 15.298608 2 0 ack 40 ------- 0 2.0 0.0 64 162
- 15.298608 2 0 ack 40 ------- 0 2.0 0.0 64 162
r 15.300672 2 0 ack 40 ------- 0 2.0 0.0 64 162
+ 15.300672 0 2 tcp 1040 ------- 0 0.0 2.0 66 163
- 15.302272 0 2 tcp 1040 ------- 0 0.0 2.0 66 163
r 15.302272 0 2 tcp 1040 ------- 0 0.0 2.0 65 161
+ 15.302272 2 0 ack 40 ------- 0 2.0 0.0 65 164
- 15.302272 2 0 ack 40 ------- 0 2.0 0.0 65 164
r 15.304336 2 0 ack 40 ------- 0 2.0 0.0 65 164
+ 15.304336 0 2 tcp 1040 ------- 0 0.0 2.0 67 165
- 15.305936 0 2 tcp 1040 ------- 0 0.0 2.0 67 165
r 15.305936 0 2 tcp 1040 ------- 0 0.0 2.0 66 163
+ 15.305936 2 0 ack 40 ------- 0 2.0 0.0 66 166
- 15.305936 2 0 ack 40 ------- 0 2.0 0.0 66 166
r 15.308 2 0 ack 40 ------- 0 2.0 0.0 66 166
+ 15.308 0 2 tcp 1040 ------- 0 0.0 2.0 68 167
+ 15.308 0 2 tcp 1040 ------- 0 0.0 2.0 69 168
- 15.3096 0 2 tcp 1040 ------- 0 0.0 2.0 67 165
- 15.313264 0 2 tcp 1040 ------- 0 0.0 2.0 68 167
r 15.313264 0 2 tcp 1040 ------- 0 0.0 2.0 67 165
+ 15.313264 2 0 ack 40 ------- 0 2.0 0.0 67 169
- 15.313264 2 0 ack 40 ------- 0 2.0 0.0 67 169
r 15.315328 2 0 ack 40 ------- 0 2.0 0.0 67 169
+ 15.315328 0 2 tcp 1040 ------- 0 0.0 2.0 70 170
- 15.316928 0 2 tcp 1040 ------- 0 0.0 2.0 69 168
r 15.316928 0 2 tcp 1040 ------- 0 0.0 2.0 68 167
+ 15.316928 2 0 ack 40 ------- 0 2.0 0.0 68 171
- 15.316928 2 0 ack 40 ------- 0 2.0 0.0 68 171
r 15.318992 2 0 ack 40 ------- 0 2.0 0.0 68 171
+ 15.318992 0 2 tcp 1040 ------- 0 0.0 2.0 71 172
- 15.320592 0 2 tcp 1040 ------- 0 0.0 2.0 70 170
r 15.320592 0 2 tcp 1040 ------- 0 0.0 2.0 69 168
+ 15.320592 2 0 ack 40 ------- 0 2.0 0.0 69 173
- 15.320592 2 0 ack 40 ------- 0 2.0 0.0 69 173
r 15.322656 2 0 ack 40 ------- 0 2.0 0.0 69 173
+ 15.322656 0 2 tcp 1040 ------- 0 0.0 2.0 72 174
+ 15.322656 0 2 tcp 1040 ------- 0 0.0 2.0 73 175
- 15.324256 0 2 tcp 1040 ------- 0 0.0 2.0 71 172
r 15.324256 0 2 tcp 1040 ------- 0 0.0 2.0 70 170
+ 15.324256 2 0 ack 40 ------- 0 2.0 0.0 70 176
- 15.324256 2 0 ack 40 ------- 0 2.0 0.0 70 176
r 15.32632 2 0 ack 40 ------- 0 2.0 0.0 70 176
+ 15.32632 0 2 tcp 1040 ------- 0 0.0 2.0 74 177
- 15.32792 0 2 tcp 1040 ------- 0 0.0 2.0 71 172
- 15.331584 0 2 tcp 1040 ------- 0 0.0 2.0 71 172
- 15.335248 0 2 tcp 1040 ------- 0 0.0 2.0 72 174
r 15.335248 0 2 tcp 1040 ------- 0 0.0 2.0 71 172
+ 15.335248 2 0 ack 40 ------- 0 2.0 0.0 71 178
- 15.335248 2 0 ack 40 ------- 0 2.0 0.0 71 178
r 15.337312 2 0 ack 40 ------- 0 2.0 0.0 71 178
+ 15.337312 0 2 tcp 1040 ------- 0 0.0 2.0 75 179
- 15.338912 0 2 tcp 1040 ------- 0 0.0 2.0 72 174
- 15.342576 0 2 tcp 1040 ------- 0 0.0 2.0 73 175
r 15.342576 0 2 tcp 1040 ------- 0 0.0 2.0 72 174
+ 15.342576 2 0 ack 40 ------- 0 2.0 0.0 72 180
- 15.342576 2 0 ack 40 ------- 0 2.0 0.0 72 180
r 15.34464 2 0 ack 40 ------- 0 2.0 0.0 72 180
+ 15.34464 0 2 tcp 1040 ------- 0 0.0 2.0 76 181
- 15.34624 0 2 tcp 1040 ------- 0 0.0 2.0 74 177
r 15.34624 0 2 tcp 1040 ------- 0 0.0 2.0 73 175
+ 15.34624 2 0 ack 40 ------- 0 2.0 0.0 73 182
- 15.34624 2 0 ack 40 ------- 0 2.0 0.0 73 182
r 15.348304 2 0 ack 40 ------- 0 2.0 0.0 73 182
+ 15.348304 0 2 tcp 1040 ------- 0 0.0 2.0 77 183
- 15.349904 0 2 tcp 1040 ------- 0 0.0 2.0 74 177
- 15.353568 0 2 tcp 1040 ------- 0 0.0 2.0 74 177
d 15.357232 0 2 tcp 1040 ------- 0 0.0 2.0 74 177
- 15.357232 0 2 tcp 1040 ------- 0 0.0 2.0 75 179
- 15.360896 0 2 tcp 1040 ------- 0 0.0 2.0 76 181
r 15.360896 0 2 tcp 1040 ------- 0 0.0 2.0 75 179
+ 15.360896 2 0 ack 40 ------- 0 2.0 0.0 73 184
- 15.360896 2 0 ack 40 ------- 0 2.0 0.0 73 184
r 15.36296 2 0 ack 40 ------- 0 2.0 0.0 73 184
+ 15.36296 0 2 tcp 1040 ------- 0 0.0 2.0 78 185
- 15.36456 0 2 tcp 1040 ------- 0 0.0 2.0 77 183
r 15.36456 0 2 tcp 1040 ------- 0 0.0 2.0 76 181
+ 15.36456 2 0 ack 40 ------- 0 2.0 0.0 73 186
- 15.36456 2 0 ack 40 ------- 0 2.0 0.0 73 186
r 15.366624 2 0 ack 40 ------- 0 2.0 0.0 73 186
+ 15.366624 0 2 tcp 1040 ------- 0 0.0 2.0 79 187
- 15.368224 0 2 tcp 1040 ------- 0 0.0 2.0 78 185
r 15.368224 0 2 tcp 1040 ------- 0 0.0 2.0 77 183
+ 15.368224 2 0 ack 40 ------- 0 2.0 0.0 73 188