V -t * -v 1.0a5 -a 0
A -t * -n 1 -p 0 -o 0x7fffffff -c 30 -a 1
A -t * -h 1 -m 1073741823 -s 0
n -t * -a 0 -s 0 -S UP -v circle -c black -i black
n -t * -a 1 -s 1 -S UP -v circle -c black -i black
n -t * -a 2 -s 2 -S UP -v circle -c black -i black
l -t * -s 0 -d 1 -S UP -r 5000000 -D 0.002 -c black
l -t * -s 1 -d 2 -S UP -r 5000000 -D 0.002 -c black
l -t * -s 0 -d 2 -S UP -r 5000000 -D 0.002 -c black
+ -t 10 -s 0 -d 2 -p tcp -e 40 -c 0 -i 0 -a 0 -x {0.0 2.0 0 ------- null}
- -t 10 -s 0 -d 2 -p tcp -e 40 -c 0 -i 0 -a 0 -x {0.0 2.0 0 ------- null}
h -t 10 -s 0 -d 2 -p tcp -e 40 -c 0 -i 0 -a 0 -x {0.0 2.0 -1 ------- null}
- -t 10.002064 -s 0 -d 2 -p tcp -e 40 -c 0 -i 0 -a 0 -x {0.0 2.0 0 ------- null}
h -t 10.002064 -s 0 -d 2 -p tcp -e 40 -c 0 -i 0 -a 0 -x {0.0 2.0 -1 ------- null}
- -t 10.004128 -s 0 -d 2 -p tcp -e 40 -c 0 -i 0 -a 0 -x {0.0 2.0 0 ------- null}
h -t 10.004128 -s 0 -d 2 -p tcp -e 40 -c 0 -i 0 -a 0 -x {0.0 2.0 -1 ------- null}
d -t 10.006192 -s 0 -d 2 -p tcp -e 40 -c 0 -i 0 -a 0 -x {0.0 2.0 0 ------- null}
+ -t 13 -s 0 -d 2 -p tcp -e 40 -c 0 -i 1 -a 0 -x {0.0 2.0 0 ---A--- null}
- -t 13 -s 0 -d 2 -p tcp -e 40 -c 0 -i 1 -a 0 -x {0.0 2.0 0 ---A--- null}
h -t 13 -s 0 -d 2 -p tcp -e 40 -c 0 -i 1 -a 0 -x {0.0 2.0 -1 ---A--- null}
r -t 13.002064 -s 0 -d 2 -p tcp -e 40 -c 0 -i 1 -a 0 -x {0.0 2.0 0 ---A--- null}
+ -t 13.002064 -s 2 -d 0 -p ack -e 40 -c 0 -i 2 -a 0 -x {2.0 0.0 0 ------- null}
- -t 13.002064 -s 2 -d 0 -p ack -e 40 -c 0 -i 2 -a 0 -x {2.0 0.0 0 ------- null}
h -t 13.002064 -s 2 -d 0 -p ack -e 40 -c 0 -i 2 -a 0 -x {2.0 0.0 -1 ------- null}
r -t 13.004128 -s 2 -d 0 -p ack -e 40 -c 0 -i 2 -a 0 -x {2.0 0.0 0 ------- null}
+ -t 13.004128 -s 0 -d 2 -p tcp -e 1040 -c 0 -i 3 -a 0 -x {0.0 2.0 1 ------- null}
- -t 13.004128 -s 0 -d 2 -p tcp -e 1040 -c 0 -i 3 -a 0 -x {0.0 2.0 1 ------- null}
h -t 13.004128 -s 0 -d 2 -p tcp -e 1040 -c 0 -i 3 -a 0 -x {0.0 2.0 -1 ------- null}
- -t 13.007792 -s 0 -d 2 -p tcp -e 1040 -c 0 -i 3 -a 0 -x {0.0 2.0 1 ------- null}
h -t 13.007792 -s 0 -d 2 -p tcp -e 1040 -c 0 -i 3 -a 0 -x {0.0 2.0 -1 ------- null}
r -t 13.011456 -s 0 -d 2 -p tcp -e 1040 -c 0 -i 3 -a 0 -x {0.0 2.0 1 ------- null}
+ -t 13.011456 -s 2 -d 0 -p ack -e 40 -c 0 -i 4 -a 0 -x {2.0 0.0 1 ------- null}
- -t 13.011456 -s 2 -d 0 -p ack -e 40 -c 0 -i 4 -a 0 -x {2.0 0.0 1 ------- null}
h -t 13.011456 -s 2 -d 0 -p ack -e 40 -c 0 -i 4 -a 0 -x {2.0 0.0 -1 ------- null}
r -t 13.01352 -s 2 -d 0 -p ack -e 40 -c 0 -i 4 -a 0 -x {2.0 0.0 1 ------- null}
+ -t 13.01352 -s 0 -d 2 -p tcp -e 1040 -c 0 -i 5 -a 0 -x {0.0 2.0 2 ------- null}
- -t 13.01352 -s 0 -d 2 -p tcp -e 1040 -c 0 -i 5 -a 0 -x {0.0 2.0 2 ------- null}
h -t 13.01352 -s 0 -d 2 -p tcp -e 1040 -c 0 -i 5 -a 0 -x {0.0 2.0 -1 ------- null}
+ -t 13.01352 -s 0 -d 2 -p tcp -e 1040 -c 0 -i 6 -a 0 -x {0.0 2.0 3 ------- null}
- -t 13.017184 -s 0 -d 2 -p tcp -e 1040 -c 0 -i 5 -a 0 -x {0.0 2.0 2 ------- null}
h -t 13.017184 -s 0 -d 2 -p tcp -e 1040 -c 0 -i 5 -a 0 -x {0.0 2.0 -1 ------- null}
- -t 13.020848 -s 0 -d 2 -p tcp -e 1040 -c 0 -i 6 -a 0 -x {0.0 2.0 3 ------- null}
h -t 13.020848 -s 0 -d 2 -p tcp -e 1040 -c 0 -i 6 -a 0 -x {0.0 2.0 -1 ------- null}
r -t 13.020848 -s 0 -d 2 -p tcp -e 1040 -c 0 -i 5 -a 0 -x {0.0 2.0 2 ------- null}
+ -t 13.020848 -s 2 -d 0 -p ack -e 40 -c 0 -i 7 -a 0 -x {2.0 0.0 2 ------- null}
- -t 13.020848 -s 2 -d 0 -p ack -e 40 -c 0 -i 7 -a 0 -x {2.0 0.0 2 ------- null}
h -t 13.020848 -s 2 -d 0 -p ack -e 40 -c 0 -i 7 -a 0 -x {2.0 0.0 -1 ------- null}
r -t 13.022912 -s 2 -d 0 -p ack -e 40 -c 0 -i 7 -a 0 -x {2.0 0.0 2 ------- null}
+ -t 13.022912 -s 0 -d 2 -p tcp -e 1040 -c 0 -i 8 -a 0 -x {0.0 2.0 4 ------- null}
- -t 13.024512 -s 0 -d 2 -p tcp -e 1040 -c 0 -i 6 -a 0 -x {0.0 2.0 3 ------- null}
h -t 13.024512 -s 0 -d 2 -p tcp -e 1040 -c 0 -i 6 -a 0 -x {0.0 2.0 -1 ------- null}
- -t 13.028176 -s 0 -d 2 -p tcp -e 1040 -c 0 -i 8 -a 0 -x {0.0 2.0 4 ------- null}
h -t 13.028176 -s 0 -d 2 -p tcp -e 1040 -c 0 -i 8 -a 0 -x {0.0 2.0 -1 ------- null}
r -t 13.028176 -s 0 -d 2 -p tcp -e 1040 -c 0 -i 6 -a 0 -x {0.0 2.0 3 ------- null}
+ -t 13.028176 -s 2 -d 0 -p ack -e 40 -c 0 -i 9 -a 0 -x {2.0 0.0 3 ------- null}
- -t 13.028176 -s 2 -d 0 -p ack -e 40 -c 0 -i 9 -a 0 -x {2.0 0.0 3 ------- null}
h -t 13.028176 -s 2 -d 0 -p ack -e 40 -c 0 -i 9 -a 0 -x {2.0 0.0 -1 ------- null}
r -t 13.03024 -s 2 -d 0 -p ack -e 40 -c 0 -i 9 -a 0 -x {2.0 0.0 3 ------- null}
+ -t 13.03024 -s 0 -d 2 -p tcp -e 1040 -c 0 -i 10 -a 0 -x {0.0 2.0 5 ------- null}
- -t 13.03184 -s 0 -d 2 -p tcp -e 1040 -c 0 -i 8 -a 0 -x {0.0 2.0 4 ------- null}
h -t 13.03184 -s 0 -d 2 -p tcp -e 1040 -c 0 -i 8 -a 0 -x {0.0 2.0 -1 ------- null}
- -t 13.035504 -s 0 -d 2 -p tcp -e 1040 -c 0 -i 8 -a 0 -x {0.0 2.0 4 ------- null}
h -t 13.035504 -s 0 -d 2 -p tcp -e 1040 -c 0 -i 8 -a 0 -x {0.0 2.0 -1 ------- null}
- -t 13.039168 -s 0 -d 2 -p tcp -e 1040 -c 0 -i 10 -a 0 -x {0.0 2.0 5 ------- null}
h -t 13.039168 -s 0 -d 2 -p tcp -e 1040 -c 0 -i 10 -a 0 -x {0.0 2.0 -1 ------- null}
r -t 13.039168 -s 0 -d 2 -p tcp -e 1040 -c 0 -i 8 -a 0 -x {0.0 2.0 4 ------- null}
+ -t 13.039168 -s 2 -d 0 -p ack -e 40 -c 0 -i 11 -a 0 -x {2.0 0.0 4 ------- null}
- -t 13.039168 -s 2 -d 0 -p ack -e 40 -c 0 -i 11 -a 0 -x {2.0 0.0 4 ------- null}
h -t 13.039168 -s 2 -d 0 -p ack -e 40 -c 0 -i 11 -a 0 -x {2.0 0.0 -1 ------- null}
r -t 13.041232 -s 2 -d 0 -p ack -e 40 -c 0 -i 11 -a 0 -x {2.0 0.0 4 ------- null}
+ -t 13.041232 -s 0 -d 2 -p tcp -e 1040 -c 0 -i 12 -a 0 -x {0.0 2.0 6 ------- null}
+ -t 13.041232 -s 0 -d 2 -p tcp -e 1040 -c 0 -i 13 -a 0 -x {0.0 2.0 7 ------- null}
- -t 13.042832 -s 0 -d 2 -p tcp -e 1040 -c 0 -i 10 -a 0 -x {0.0 2.0 5 ------- null}
h -t 13.042832 -s 0 -d 2 -p tcp -e 1040 -c 0 -i 10 -a 0 -x {0.0 2.0 -1 ------- null}
- -t 13.046496 -s 0 -d 2 -p tcp -e 1040 -c 0 -i 12 -a 0 -x {0.0 2.0 6 ------- null}
h -t 13.046496 -s 0 -d 2 -p tcp -e 1040 -c 0 -i 12 -a 0 -x {0.0 2.0 -1 ------- null}
r -t 13.046496 -s 0 -d 2 -p tcp -e 1040 -c 0 -i 10 -a 0 -x {0.0 2.0 5 ------- null}
+ -t 13.046496 -s 2 -d 0 -p ack -e 40 -c 0 -i 14 -a 0 -x {2.0 0.0 5 ------- null}
- -t 13.046496 -s 2 -d 0 -p ack -e 40 -c 0 -i 14 -a 0 -x {2.0 0.0 5 ------- null}
h -t 13.046496 -s 2 -d 0 -p ack -e 40 -c 0 -i 14 -a 0 -x {2.0 0.0 -1 ------- null}
r -t 13.04856 -s 2 -d 0 -p ack -e 40 -c 0 -i 14 -a 0 -x {2.0 0.0 5 ------- null}
+ -t 13.04856 -s 0 -d 2 -p tcp -e 1040 -c 0 -i 15 -a 0 -x {0.0 2.0 8 ------- null}
- -t 13.05016 -s 0 -d 2 -p tcp -e 1040 -c 0 -i 12 -a 0 -x {0.0 2.0 6 ------- null}
h -t 13.05016 -s 0 -d 2 -p tcp -e 1040 -c 0 -i 12 -a 0 -x {0.0 2.0 -1 ------- null}
- -t 13.053824 -s 0 -d 2 -p tcp -e 1040 -c 0 -i 12 -a 0 -x {0.0 2.0 6 ------- null}
h -t 13.053824 -s 0 -d 2 -p tcp -e 1040 -c 0 -i 12 -a 0 -x {0.0 2.0 -1 ------- null}
d -t 13.057488 -s 0 -d 2 -p tcp -e 1040 -c 0 -i 12 -a 0 -x {0.0 2.0 6 ------- null}
- -t 13.057488 -s 0 -d 2 -p tcp -e 1040 -c 0 -i 13 -a 0 -x {0.0 2.0 7 ------- null}
h -t 13.057488 -s 0 -d 2 -p tcp -e 1040 -c 0 -i 13 -a 0 -x {0.0 2.0 -1 ------- null}
- -t 13.061152 -s 0 -d 2 -p tcp -e 1040 -c 0 -i 15 -a 0 -x {0.0 2.0 8 ------- null}
h -t 13.061152 -s 0 -d 2 -p tcp -e 1040 -c 0 -i 15 -a 0 -x {0.0 2.0 -1 ------- null}
r -t 13.061152 -s 0 -d 2 -p tcp -e 1040 -c 0 -i 13 -a 0 -x {0.0 2.0 7 ------- null}
+ -t 13.061152 -s 2 -d 0 -p ack -e 40 -c 0 -i 16 -a 0 -x {2.0 0.0 5 ------- null}
- -t 13.061152 -s 2 -d 0 -p ack -e 40 -c 0 -i 16 -a 0 -x {2.0 0.0 5 ------- null}
h -t 13.061152 -s 2 -d 0 -p ack -e 40 -c 0 -i 16 -a 0 -x {2.0 0.0 -1 ------- null}
r -t 13.063216 -s 2 -d 0 -p ack -e 40 -c 0 -i 16 -a 0 -x {2.0 0.0 5 ------- null}
+ -t 13.063216 -s 0 -d 2 -p tcp -e 1040 -c 0 -i 17 -a 0 -x {0.0 2.0 9 ------- null}
- -t 13.064816 -s 0 -d 2 -p tcp -e 1040 -c 0 -i 15 -a 0 -x {0.0 2.0 8 ------- null}
h -t 13.064816 -s 0 -d 2 -p tcp -e 1040 -c 0 -i 15 -a 0 -x {0.0 2.0 -1 ------- null}
- -t 13.06848 -s 0 -d 2 -p tcp -e 1040 -c 0 -i 15 -a 0 -x {0.0 2.0 8 ------- null}
h -t 13.06848 -s 0 -d 2 -p tcp -e 1040 -c 0 -i 15 -a 0 -x {0.0 2.0 -1 ------- null}
d -t 13.072144 -s 0 -d 2 -p tcp -e 1040 -c 0 -i 15 -a 0 -x {0.0 2.0 8 ------- null}
- -t 13.072144 -s 0 -d 2 -p tcp -e 1040 -c 0 -i 17 -a 0 -x {0.0 2.0 9 ------- null}
h -t 13.072144 -s 0 -d 2 -p tcp -e 1040 -c 0 -i 17 -a 0 -x {0.0 2.0 -1 ------- null}
r -t 13.075808 -s 0 -d 2 -p tcp -e 1040 -c 0 -i 17 -a 0 -x {0.0 2.0 9 ------- null}
+ -t 13.075808 -s 2 -d 0 -p ack -e 40 -c 0 -i 18 -a 0 -x {2.0 0.0 5 ------- null}
- -t 13.075808 -s 2 -d 0 -p ack -e 40 -c 0 -i 18 -a 0 -x {2.0 0.0 5 ------- null}
h -t 13.075808 -s 2 -d 0 -p ack -e 40 -c 0 -i 18 -a 0 -x {2.0 0.0 -1 ------- null}
r -t 13.077872 -s 2 -d 0 -p ack -e 40 -c 0 -i 18 -a 0 -x {2.0 0.0 5 ------- null}
+ -t 13.077872 -s 0 -d 2 -p tcp -e 1040 -c 0 -i 19 -a 0 -x {0.0 2.0 10 ------- null}
- -t 13.077872 -s 0 -d 2 -p tcp -e 1040 -c 0 -i 19 -a 0 -x {0.0 2.0 10 ------- null}
h -t 13.077872 -s 0 -d 2 -p tcp -e 1040 -c 0 -i 19 -a 0 -x {0.0 2.0 -1 ------- null}
- -t 13.081536 -s 0 -d 2 -p tcp -e 1040 -c 0 -i 19 -a 0 -x {0.0 2.0 10 ------- null}
h -t 13.081536 -s 0 -d 2 -p tcp -e 1040 -c 0 -i 19 -a 0 -x {0.0 2.0 -1 ------- null}
r -t 13.0852 -s 0 -d 2 -p tcp -e 1040 -c 0 -i 19 -a 0 -x {0.0 2.0 10 ------- null}
+ -t 13.0852 -s 2 -d 0 -p ack -e 40 -c 0 -i 20 -a 0 -x {2.0 0.0 5 ------- null}
- -t 13.0852 -s 2 -d 0 -p ack -e 40 -c 0 -i 20 -a 0 -x {2.0 0.0 5 ------- null}
h -t 13.0852 -s 2 -d 0 -p ack -e 40 -c 0 -i 20 -a 0 -x {2.0 0.0 -1 ------- null}
r -t 13.087264 -s 2 -d 0 -p ack -e 40 -c 0 -i 20 -a 0 -x {2.0 0.0 5 ------- null}
+ -t 13.087264 -s 0 -d 2 -p tcp -e 1040 -c 0 -i 21 -a 0 -x {0.0 2.0 6 ---A--- null}
- -t 13.087264 -s 0 -d 2 -p tcp -e 1040 -c 0 -i 21 -a 0 -x {0.0 2.0 6 ---A--- null}
h -t 13.087264 -s 0 -d 2 -p tcp -e 1040 -c 0 -i 21 -a 0 -x {0.0 2.0 -1 ---A--- null}
r -t 13.090928 -s 0 -d 2 -p tcp -e 1040 -c 0 -i 21 -a 0 -x {0.0 2.0 6 ---A--- null}
+ -t 13.090928 -s 2 -d 0 -p ack -e 40 -c 0 -i 22 -a 0 -x {2.0 0.0 7 ------- null}
- -t 13.090928 -s 2 -d 0 -p ack -e 40 -c 0 -i 22 -a 0 -x {2.0 0.0 7 ------- null}
h -t 13.090928 -s 2 -d 0 -p ack -e 40 -c 0 -i 22 -a 0 -x {2.0 0.0 -1 ------- null}
r -t 13.092992 -s 2 -d 0 -p ack -e 40 -c 0 -i 22 -a 0 -x {2.0 0.0 7 ------- null}
+ -t 13.092992 -s 0 -d 2 -p tcp -e 1040 -c 0 -i 23 -a 0 -x {0.0 2.0 8 ------- null}
- -t 13.092992 -s 0 -d 2 -p tcp -e 1040 -c 0 -i 23 -a 0 -x {0.0 2.0 8 ------- null}
h -t 13.092992 -s 0 -d 2 -p tcp -e 1040 -c 0 -i 23 -a 0 -x {0.0 2.0 -1 ------- null}
+ -t 13.092992 -s 0 -d 2 -p tcp -e 1040 -c 0 -i 24 -a 0 -x {0.0 2.0 9 ------- null}
- -t 13.096656 -s 0 -d 2 -p tcp -e 1040 -c 0 -i 24 -a 0 -x {0.0 2.0 9 ------- null}
h -t 13.096656 -s 0 -d 2 -p tcp -e 1040 -c 0 -i 24 -a 0 -x {0.0 2.0 -1 ------- null}
r -t 13.096656 -s 0 -d 2 -p tcp -e 1040 -c 0 -i 23 -a 0 -x {0.0 2.0 8 ------- null}
+ -t 13.096656 -s 2 -d 0 -p ack -e 40 -c 0 -i 25 -a 0 -x {2.0 0.0 10 ------- null}
- -t 13.096656 -s 2 -d 0 -p ack -e 40 -c 0 -i 25 -a 0 -x {2.0 0.0 10 ------- null}
h -t 13.096656 -s 2 -d 0 -p ack -e 40 -c 0 -i 25 -a 0 -x {2.0 0.0 -1 ------- null}
r -t 13.09872 -s 2 -d 0 -p ack -e 40 -c 0 -i 25 -a 0 -x {2.0 0.0 10 ------- null}
+ -t 13.09872 -s 0 -d 2 -p tcp -e 1040 -c 0 -i 26 -a 0 -x {0.0 2.0 11 ------- null}
+ -t 13.09872 -s 0 -d 2 -p tcp -e 1040 -c 0 -i 27 -a 0 -x {0.0 2.0 12 ------- null}
- -t 13.10032 -s 0 -d 2 -p tcp -e 1040 -c 0 -i 24 -a 0 -x {0.0 2.0 9 ------- null}
h -t 13.10032 -s 0 -d 2 -p tcp -e 1040 -c 0 -i 24 -a 0 -x {0.0 2.0 -1 ------- null}
- -t 13.103984 -s 0 -d 2 -p tcp -e 1040 -c 0 -i 24 -a 0 -x {0.0 2.0 9 ------- null}
h -t 13.103984 -s 0 -d 2 -p tcp -e 1040 -c 0 -i 24 -a 0 -x {0.0 2.0 -1 ------- null}
- -t 13.107648 -s 0 -d 2 -p tcp -e 1040 -c 0 -i 26 -a 0 -x {0.0 2.0 11 ------- null}
h -t 13.107648 -s 0 -d 2 -p tcp -e 1040 -c 0 -i 26 -a 0 -x {0.0 2.0 -1 ------- null}
r -t 13.107648 -s 0 -d 2 -p tcp -e 1040 -c 0 -i 24 -a 0 -x {0.0 2.0 9 ------- null}
+ -t 13.107648 -s 2 -d 0 -p ack -e 40 -c 0 -i 28 -a 0 -x {2.0 0.0 10 ------- null}
- -t 13.107648 -s 2 -d 0 -p ack -e 40 -c 0 -i 28 -a 0 -x {2.0 0.0 10 ------- null}
h -t 13.107648 -s 2 -d 0 -p ack -e 40 -c 0 -i 28 -a 0 -x {2.0 0.0 -1 ------- null}
r -t 13.109712 -s 2 -d 0 -p ack -e 40 -c 0 -i 28 -a 0 -x {2.0 0.0 10 ------- null}
+ -t 13.109712 -s 0 -d 2 -p tcp -e 1040 -c 0 -i 29 -a 0 -x {0.0 2.0 13 ------- null}
- -t 13.111312 -s 0 -d 2 -p tcp -e 1040 -c 0 -i 27 -a 0 -x {0.0 2.0 12 ------- null}
h -t 13.111312 -s 0 -d 2 -p tcp -e 1040 -c 0 -i 27 -a 0 -x {0.0 2.0 -1 ------- null}
r -t 13.111312 -s 0 -d 2 -p tcp -e 1040 -c 0 -i 26 -a 0 -x {0.0 2.0 11 ------- null}
+ -t 13.111312 -s 2 -d 0 -p ack -e 40 -c 0 -i 30 -a 0 -x {2.0 0.0 11 ------- null}
- -t 13.111312 -s 2 -d 0 -p ack -e 40 -c 0 -i 30 -a 0 -x {2.0 0.0 11 ------- null}
h -t 13.111312 -s 2 -d 0 -p ack -e 40 -c 0 -i 30 -a 0 -x {2.0 0.0 -1 ------- null}
r -t 13.113376 -s 2 -d 0 -p ack -e 40 -c 0 -i 30 -a 0 -x {2.0 0.0 11 ------- null}
- -t 13.114976 -s 0 -d 2 -p tcp -e 1040 -c 0 -i 29 -a 0 -x {0.0 2.0 13 ------- null}
h -t 13.114976 -s 0 -d 2 -p tcp -e 1040 -c 0 -i 29 -a 0 -x {0.0 2.0 -1 ------- null}
r -t 13.114976 -s 0 -d 2 -p tcp -e 1040 -c 0 -i 27 -a 0 -x {0.0 2.0 12 ------- null}
+ -t 13.114976 -s 2 -d 0 -p ack -e 40 -c 0 -i 31 -a 0 -x {2.0 0.0 12 ------- null}
- -t 13.114976 -s 2 -d 0 -p ack -e 40 -c 0 -i 31 -a 0 -x {2.0 0.0 12 ------- null}
h -t 13.114976 -s 2 -d 0 -p ack -e 40 -c 0 -i 31 -a 0 -x {2.0 0.0 -1 ------- null}
r -t 13.11704 -s 2 -d 0 -p ack -e 40 -c 0 -i 31 -a 0 -x {2.0 0.0 12 ------- null}
+ -t 13.11704 -s 0 -d 2 -p tcp -e 1040 -c 0 -i 32 -a 0 -x {0.0 2.0 14 ------- null}
+ -t 13.11704 -s 0 -d 2 -p tcp -e 1040 -c 0 -i 33 -a 0 -x {0.0 2.0 15 ------- null}
- -t 13.11864 -s 0 -d 2 -p tcp -e 1040 -c 0 -i 32 -a 0 -x {0.0 2.0 14 ------- null}
h -t 13.11864 -s 0 -d 2 -p tcp -e 1040 -c 0 -i 32 -a 0 -x {0.0 2.0 -1 ------- null}
r -t 13.11864 -s 0 -d 2 -p tcp -e 1040 -c 0 -i 29 -a 0 -x {0.0 2.0 13 ------- null}
+ -t 13.11864 -s 2 -d 0 -p ack -e 40 -c 0 -i 34 -a 0 -x {2.0 0.0 13 ------- null}
- -t 13.11864 -s 2 -d 0 -p ack -e 40 -c 0 -i 34 -a 0 -x {2.0 0.0 13 ------- null}
h -t 13.11864 -s 2 -d 0 -p ack -e 40 -c 0 -i 34 -a 0 -x {2.0 0.0 -1 ------- null}
r -t 13.120704 -s 2 -d 0 -p ack -e 40 -c 0 -i 34 -a 0 -x {2.0 0.0 13 ------- null}
+ -t 13.120704 -s 0 -d 2 -p tcp -e 1040 -c 0 -i 35 -a 0 -x {0.0 2.0 16 ------- null}
- -t 13.122304 -s 0 -d 2 -p tcp -e 1040 -c 0 -i 32 -a 0 -x {0.0 2.0 14 ------- null}
h -t 13.122304 -s 0 -d 2 -p tcp -e 1040 -c 0 -i 32 -a 0 -x {0.0 2.0 -1 ------- null}
- -t 13.125968 -s 0 -d 2 -p tcp -e 1040 -c 0 -i 32 -a 0 -x {0.0 2.0 14 ------- null}
h -t 13.125968 -s 0 -d 2 -p tcp -e 1040 -c 0 -i 32 -a 0 -x {0.0 2.0 -1 ------- null}
d -t 13.129632 -s 0 -d 2 -p tcp -e 1040 -c 0 -i 32 -a 0 -x {0.0 2.0 14 ------- null}
- -t 13.129632 -s 0 -d 2 -p tcp -e 1040 -c 0 -i 33 -a 0 -x {0.0 2.0 15 ------- null}
h -t 13.129632 -s 0 -d 2 -p tcp -e 1040 -c 0 -i 33 -a 0 -x {0.0 2.0 -1 ------- null}
d -t 13.133296 -s 0 -d 2 -p tcp -e 1040 -c 0 -i 33 -a 0 -x {0.0 2.0 15 ------- null}
- -t 13.133296 -s 0 -d 2 -p tcp -e 1040 -c 0 -i 35 -a 0 -x {0.0 2.0 16 ------- null}
h -t 13.133296 -s 0 -d 2 -p tcp -e 1040 -c 0 -i 35 -a 0 -x {0.0 2.0 -1 ------- null}
r -t 13.13696 -s 0 -d 2 -p tcp -e 1040 -c 0 -i 35 -a 0 -x {0.0 2.0 16 ------- null}
+ -t 13.13696 -s 2 -d 0 -p ack -e 40 -c 0 -i 36 -a 0 -x {2.0 0.0 13 ------- null}
- -t 13.13696 -s 2 -d 0 -p ack -e 40 -c 0 -i 36 -a 0 -x {2.0 0.0 13 ------- null}
h -t 13.13696 -s 2 -d 0 -p ack -e 40 -c 0 -i 36 -a 0 -x {2.0 0.0 -1 ------- null}
r -t 13.139024 -s 2 -d 0 -p ack -e 40 -c 0 -i 36 -a 0 -x {2.0 0.0 13 ------- null}
+ -t 13.139024 -s 0 -d 2 -p tcp -e 1040 -c 0 -i 37 -a 0 -x {0.0 2.0 17 ------- null}
- -t 13.139024 -s 0 -d 2 -p tcp -e 1040 -c 0 -i 37 -a 0 -x {0.0 2.0 17 ------- null}
h -t 13.139024 -s 0 -d 2 -p tcp -e 1040 -c 0 -i 37 -a 0 -x {0.0 2.0 -1 ------- null}
r -t 13.142688 -s 0 -d 2 -p tcp -e 1040 -c 0 -i 37 -a 0 -x {0.0 2.0 17 ------- null}
+ -t 13.142688 -s 2 -d 0 -p ack -e 40 -c 0 -i 38 -a 0 -x {2.0 0.0 13 ------- null}
- -t 13.142688 -s 2 -d 0 -p ack -e 40 -c 0 -i 38 -a 0 -x {2.0 0.0 13 ------- null}
h -t 13.142688 -s 2 -d 0 -p ack -e 40 -c 0 -i 38 -a 0 -x {2.0 0.0 -1 ------- null}
r -t 13.144752 -s 2 -d 0 -p ack -e 40 -c 0 -i 38 -a 0 -x {2.0 0.0 13 ------- null}
+ -t 13.144752 -s 0 -d 2 -p tcp -e 1040 -c 0 -i 39 -a 0 -x {0.0 2.0 18 ------- null}
- -t 13.144752 -s 0 -d 2 -p tcp -e 1040 -c 0 -i 39 -a 0 -x {0.0 2.0 18 ------- null}
h -t 13.144752 -s 0 -d 2 -p tcp -e 1040 -c 0 -i 39 -a 0 -x {0.0 2.0 -1 ------- null}
r -t 13.148416 -s 0 -d 2 -p tcp -e 1040 -c 0 -i 39 -a 0 -x {0.0 2.0 18 ------- null}
+ -t 13.148416 -s 2 -d 0 -p ack -e 40 -c 0 -i 40 -a 0 -x {2.0 0.0 13 ------- null}
- -t 13.148416 -s 2 -d 0 -p ack -e 40 -c 0 -i 40 -a 0 -x {2.0 0.0 13 ------- null}
h -t 13.148416 -s 2 -d 0 -p ack -e 40 -c 0 -i 40 -a 0 -x {2.0 0.0 -1 ------- null}
r -t 13.15048 -s 2 -d 0 -p ack -e 40 -c 0 -i 40 -a 0 -x {2.0 0.0 13 ------- null}
+ -t 13.15048 -s 0 -d 2 -p tcp -e 1040 -c 0 -i 41 -a 0 -x {0.0 2.0 14 ---A--- null}
- -t 13.15048 -s 0 -d 2 -p tcp -e 1040 -c 0 -i 41 -a 0 -x {0.0 2.0 14 ---A--- null}
h -t 13.15048 -s 0 -d 2 -p tcp -e 1040 -c 0 -i 41 -a 0 -x {0.0 2.0 -1 ---A--- null}
- -t 13.154144 -s 0 -d 2 -p tcp -e 1040 -c 0 -i 41 -a 0 -x {0.0 2.0 14 ---A--- null}
h -t 13.154144 -s 0 -d 2 -p tcp -e 1040 -c 0 -i 41 -a 0 -x {0.0 2.0 -1 ---A--- null}
- -t 13.157808 -s 0 -d 2 -p tcp -e 1040 -c 0 -i 41 -a 0 -x {0.0 2.0 14 ---A--- null}
h -t 13.157808 -s 0 -d 2 -p tcp -e 1040 -c 0 -i 41 -a 0 -x {0.0 2.0 -1 ---A--- null}
d -t 13.161472 -s 0 -d 2 -p tcp -e 1040 -c 0 -i 41 -a 0 -x {0.0 2.0 14 ---A--- null}
+ -t 13.35048 -s 0 -d 2 -p tcp -e 1040 -c 0 -i 42 -a 0 -x {0.0 2.0 14 ---A--- null}
- -t 13.35048 -s 0 -d 2 -p tcp -e 1040 -c 0 -i 42 -a 0 -x {0.0 2.0 14 ---A--- null}
h -t 13.35048 -s 0 -d 2 -p tcp -e 1040 -c 0 -i 42 -a 0 -x {0.0 2.0 -1 ---A--- null}
r -t 13.354144 -s 0 -d 2 -p tcp -e 1040 -c 0 -i 42 -a 0 -x {0.0 2.0 14 ---A--- null}
+ -t 13.354144 -s 2 -d 0 -p ack -e 40 -c 0 -i 43 -a 0 -x {2.0 0.0 14 ------- null}
- -t 13.354144 -s 2 -d 0 -p ack -e 40 -c 0 -i 43 -a 0 -x {2.0 0.0 14 ------- null}
h -t 13.354144 -s 2 -d 0 -p ack -e 40 -c 0 -i 43 -a 0 -x {2.0 0.0 -1 ------- null}
r -t 13.356208 -s 2 -d 0 -p ack -e 40 -c 0 -i 43 -a 0 -x {2.0 0.0 14 ------- null}
+ -t 13.356208 -s 0 -d 2 -p tcp -e 1040 -c 0 -i 44 -a 0 -x {0.0 2.0 15 ------- null}
- -t 13.356208 -s 0 -d 2 -p tcp -e 1040 -c 0 -i 44 -a 0 -x {0.0 2.0 15 ------- null}
h -t 13.356208 -s 0 -d 2 -p tcp -e 1040 -c 0 -i 44 -a 0 -x {0.0 2.0 -1 ------- null}
+ -t 13.356208 -s 0 -d 2 -p tcp -e 1040 -c 0 -i 45 -a 0 -x {0.0 2.0 16 ------- null}
- -t 13.359872 -s 0 -d 2 -p tcp -e 1040 -c 0 -i 44 -a 0 -x {0.0 2.0 15 ------- null}
h -t 13.359872 -s 0 -d 2 -p tcp -e 1040 -c 0 -i 44 -a 0 -x {0.0 2.0 -1 ------- null}
- -t 13.363536 -s 0 -d 2 -p tcp -e 1040 -c 0 -i 44 -a 0 -x {0.0 2.0 15 ------- null}
h -t 13.363536 -s 0 -d 2 -p tcp -e 1040 -c 0 -i 44 -a 0 -x {0.0 2.0 -1 ------- null}
- -t 13.3672 -s 0 -d 2 -p tcp -e 1040 -c 0 -i 45 -a 0 -x {0.0 2.0 16 ------- null}
h -t 13.3672 -s 0 -d 2 -p tcp -e 1040 -c 0 -i 45 -a 0 -x {0.0 2.0 -1 ------- null}
r -t 13.3672 -s 0 -d 2 -p tcp -e 1040 -c 0 -i 44 -a 0 -x {0.0 2.0 15 ------- null}
+ -t 13.3672 -s 2 -d 0 -p ack -e 40 -c 0 -i 46 -a 0 -x {2.0 0.0 18 ------- null}
- -t 13.3672 -s 2 -d 0 -p ack -e 40 -c 0 -i 46 -a 0 -x {2.0 0.0 18 ------- null}
h -t 13.3672 -s 2 -d 0 -p ack -e 40 -c 0 -i 46 -a 0 -x {2.0 0.0 -1 ------- null}
r -t 13.369264 -s 2 -d 0 -p ack -e 40 -c 0 -i 46 -a 0 -x {2.0 0.0 18 ------- null}
+ -t 13.369264 -s 0 -d 2 -p tcp -e 1040 -c 0 -i 47 -a 0 -x {0.0 2.0 19 ------- null}
+ -t 13.369264 -s 0 -d 2 -p tcp -e 1040 -c 0 -i 48 -a 0 -x {0.0 2.0 20 ------- null}
- -t 13.370864 -s 0 -d 2 -p tcp -e 1040 -c 0 -i 45 -a 0 -x {0.0 2.0 16 ------- null}
h -t 13.370864 -s 0 -d 2 -p tcp -e 1040 -c 0 -i 45 -a 0 -x {0.0 2.0 -1 ------- null}
- -t 13.374528 -s 0 -d 2 -p tcp -e 1040 -c 0 -i 47 -a 0 -x {0.0 2.0 19 ------- null}
h -t 13.374528 -s 0 -d 2 -p tcp -e 1040 -c 0 -i 47 -a 0 -x {0.0 2.0 -1 ------- null}
r -t 13.374528 -s 0 -d 2 -p tcp -e 1040 -c 0 -i 45 -a 0 -x {0.0 2.0 16 ------- null}
+ -t 13.374528 -s 2 -d 0 -p ack -e 40 -c 0 -i 49 -a 0 -x {2.0 0.0 18 ------- null}
- -t 13.374528 -s 2 -d 0 -p ack -e 40 -c 0 -i 49 -a 0 -x {2.0 0.0 18 ------- null}
h -t 13.374528 -s 2 -d 0 -p ack -e 40 -c 0 -i 49 -a 0 -x {2.0 0.0 -1 ------- null}
r -t 13.376592 -s 2 -d 0 -p ack -e 40 -c 0 -i 49 -a 0 -x {2.0 0.0 18 ------- null}
+ -t 13.376592 -s 0 -d 2 -p tcp -e 1040 -c 0 -i 50 -a 0 -x {0.0 2.0 21 ------- null}
- -t 13.378192 -s 0 -d 2 -p tcp -e 1040 -c 0 -i 48 -a 0 -x {0.0 2.0 20 ------- null}
h -t 13.378192 -s 0 -d 2 -p tcp -e 1040 -c 0 -i 48 -a 0 -x {0.0 2.0 -1 ------- null}
r -t 13.378192 -s 0 -d 2 -p tcp -e 1040 -c 0 -i 47 -a 0 -x {0.0 2.0 19 ------- null}
+ -t 13.378192 -s 2 -d 0 -p ack -e 40 -c 0 -i 51 -a 0 -x {2.0 0.0 19 ------- null}
- -t 13.378192 -s 2 -d 0 -p ack -e 40 -c 0 -i 51 -a 0 -x {2.0 0.0 19 ------- null}
h -t 13.378192 -s 2 -d 0 -p ack -e 40 -c 0 -i 51 -a 0 -x {2.0 0.0 -1 ------- null}
r -t 13.380256 -s 2 -d 0 -p ack -e 40 -c 0 -i 51 -a 0 -x {2.0 0.0 19 ------- null}
- -t 13.381856 -s 0 -d 2 -p tcp -e 1040 -c 0 -i 50 -a 0 -x {0.0 2.0 21 ------- null}
h -t 13.381856 -s 0 -d 2 -p tcp -e 1040 -c 0 -i 50 -a 0 -x {0.0 2.0 -1 ------- null}
r -t 13.381856 -s 0 -d 2 -p tcp -e 1040 -c 0 -i 48 -a 0 -x {0.0 2.0 20 ------- null}
+ -t 13.381856 -s 2 -d 0 -p ack -e 40 -c 0 -i 52 -a 0 -x {2.0 0.0 20 ------- null}
- -t 13.381856 -s 2 -d 0 -p ack -e 40 -c 0 -i 52 -a 0 -x {2.0 0.0 20 ------- null}
h -t 13.381856 -s 2 -d 0 -p ack -e 40 -c 0 -i 52 -a 0 -x {2.0 0.0 -1 ------- null}
r -t 13.38392 -s 2 -d 0 -p ack -e 40 -c 0 -i 52 -a 0 -x {2.0 0.0 20 ------- null}
+ -t 13.38392 -s 0 -d 2 -p tcp -e 1040 -c 0 -i 53 -a 0 -x {0.0 2.0 22 ------- null}
+ -t 13.38392 -s 0 -d 2 -p tcp -e 1040 -c 0 -i 54 -a 0 -x {0.0 2.0 23 ------- null}
- -t 13.38552 -s 0 -d 2 -p tcp -e 1040 -c 0 -i 50 -a 0 -x {0.0 2.0 21 ------- null}
h -t 13.38552 -s 0 -d 2 -p tcp -e 1040 -c 0 -i 50 -a 0 -x {0.0 2.0 -1 ------- null}
- -t 13.389184 -s 0 -d 2 -p tcp -e 1040 -c 0 -i 53 -a 0 -x {0.0 2.0 22 ------- null}
h -t 13.389184 -s 0 -d 2 -p tcp -e 1040 -c 0 -i 53 -a 0 -x {0.0 2.0 -1 ------- null}
r -t 13.389184 -s 0 -d 2 -p tcp -e 1040 -c 0 -i 50 -a 0 -x {0.0 2.0 21 ------- null}
+ -t 13.389184 -s 2 -d 0 -p ack -e 40 -c 0 -i 55 -a 0 -x {2.0 0.0 21 ------- null}
- -t 13.389184 -s 2 -d 0 -p ack -e 40 -c 0 -i 55 -a 0 -x {2.0 0.0 21 ------- null}
h -t 13.389184 -s 2 -d 0 -p ack -e 40 -c 0 -i 55 -a 0 -x {2.0 0.0 -1 ------- null}
r -t 13.391248 -s 2 -d 0 -p ack -e 40 -c 0 -i 55 -a 0 -x {2.0 0.0 21 ------- null}
+ -t 13.391248 -s 0 -d 2 -p tcp -e 1040 -c 0 -i 56 -a 0 -x {0.0 2.0 24 ------- null}
- -t 13.392848 -s 0 -d 2 -p tcp -e 1040 -c 0 -i 53 -a 0 -x {0.0 2.0 22 ------- null}
h -t 13.392848 -s 0 -d 2 -p tcp -e 1040 -c 0 -i 53 -a 0 -x {0.0 2.0 -1 ------- null}
- -t 13.396512 -s 0 -d 2 -p tcp -e 1040 -c 0 -i 53 -a 0 -x {0.0 2.0 22 ------- null}
h -t 13.396512 -s 0 -d 2 -p tcp -e 1040 -c 0 -i 53 -a 0 -x {0.0 2.0 -1 ------- null}
d -t 13.400176 -s 0 -d 2 -p tcp -e 1040 -c 0 -i 53 -a 0 -x {0.0 2.0 22 ------- null}
- -t 13.400176 -s 0 -d 2 -p tcp -e 1040 -c 0 -i 54 -a 0 -x {0.0 2.0 23 ------- null}
h -t 13.400176 -s 0 -d 2 -p tcp -e 1040 -c 0 -i 54 -a 0 -x {0.0 2.0 -1 ------- null}
d -t 13.40384 -s 0 -d 2 -p tcp -e 1040 -c 0 -i 54 -a 0 -x {0.0 2.0 23 ------- null}
- -t 13.40384 -s 0 -d 2 -p tcp -e 1040 -c 0 -i 56 -a 0 -x {0.0 2.0 24 ------- null}
h -t 13.40384 -s 0 -d 2 -p tcp -e 1040 -c 0 -i 56 -a 0 -x {0.0 2.0 -1 ------- null}
r -t 13.407504 -s 0 -d 2 -p tcp -e 1040 -c 0 -i 56 -a 0 -x {0.0 2.0 24 ------- null}
+ -t 13.407504 -s 2 -d 0 -p ack -e 40 -c 0 -i 57 -a 0 -x {2.0 0.0 21 ------- null}
- -t 13.407504 -s 2 -d 0 -p ack -e 40 -c 0 -i 57 -a 0 -x {2.0 0.0 21 ------- null}
h -t 13.407504 -s 2 -d 0 -p ack -e 40 -c 0 -i 57 -a 0 -x {2.0 0.0 -1 ------- null}
r -t 13.409568 -s 2 -d 0 -p ack -e 40 -c 0 -i 57 -a 0 -x {2.0 0.0 21 ------- null}
+ -t 13.409568 -s 0 -d 2 -p tcp -e 1040 -c 0 -i 58 -a 0 -x {0.0 2.0 25 ------- null}
- -t 13.409568 -s 0 -d 2 -p tcp -e 1040 -c 0 -i 58 -a 0 -x {0.0 2.0 25 ------- null}
h -t 13.409568 -s 0 -d 2 -p tcp -e 1040 -c 0 -i 58 -a 0 -x {0.0 2.0 -1 ------- null}
r -t 13.413232 -s 0 -d 2 -p tcp -e 1040 -c 0 -i 58 -a 0 -x {0.0 2.0 25 ------- null}
+ -t 13.413232 -s 2 -d 0 -p ack -e 40 -c 0 -i 59 -a 0 -x {2.0 0.0 21 ------- null}
- -t 13.413232 -s 2 -d 0 -p ack -e 40 -c 0 -i 59 -a 0 -x {2.0 0.0 21 ------- null}
h -t 13.413232 -s 2 -d 0 -p ack -e 40 -c 0 -i 59 -a 0 -x {2.0 0.0 -1 ------- null}
r -t 13.415296 -s 2 -d 0 -p ack -e 40 -c 0 -i 59 -a 0 -x {2.0 0.0 21 ------- null}
+ -t 13.415296 -s 0 -d 2 -p tcp -e 1040 -c 0 -i 60 -a 0 -x {0.0 2.0 26 ------- null}
- -t 13.415296 -s 0 -d 2 -p tcp -e 1040 -c 0 -i 60 -a 0 -x {0.0 2.0 26 ------- null}
h -t 13.415296 -s 0 -d 2 -p tcp -e 1040 -c 0 -i 60 -a 0 -x {0.0 2.0 -1 ------- null}
r -t 13.41896 -s 0 -d 2 -p tcp -e 1040 -c 0 -i 60 -a 0 -x {0.0 2.0 26 ------- null}
+ -t 13.41896 -s 2 -d 0 -p ack -e 40 -c 0 -i 61 -a 0 -x {2.0 0.0 21 ------- null}
- -t 13.41896 -s 2 -d 0 -p ack -e 40 -c 0 -i 61 -a 0 -x {2.0 0.0 21 ------- null}
h -t 13.41896 -s 2 -d 0 -p ack -e 40 -c 0 -i 61 -a 0 -x {2.0 0.0 -1 ------- null}
r -t 13.421024 -s 2 -d 0 -p ack -e 40 -c 0 -i 61 -a 0 -x {2.0 0.0 21 ------- null}
+ -t 13.421024 -s 0 -d 2 -p tcp -e 1040 -c 0 -i 62 -a 0 -x {0.0 2.0 22 ---A--- null}
- -t 13.421024 -s 0 -d 2 -p tcp -e 1040 -c 0 -i 62 -a 0 -x {0.0 2.0 22 ---A--- null}
h -t 13.421024 -s 0 -d 2 -p tcp -e 1040 -c 0 -i 62 -a 0 -x {0.0 2.0 -1 ---A--- null}
- -t 13.424688 -s 0 -d 2 -p tcp -e 1040 -c 0 -i 62 -a 0 -x {0.0 2.0 22 ---A--- null}
h -t 13.424688 -s 0 -d 2 -p tcp -e 1040 -c 0 -i 62 -a 0 -x {0.0 2.0 -1 ---A--- null}
r -t 13.428352 -s 0 -d 2 -p tcp -e 1040 -c 0 -i 62 -a 0 -x {0.0 2.0 22 ---A--- null}
+ -t 13.428352 -s 2 -d 0 -p ack -e 40 -c 0 -i 63 -a 0 -x {2.0 0.0 22 ------- null}
- -t 13.428352 -s 2 -d 0 -p ack -e 40 -c 0 -i 63 -a 0 -x {2.0 0.0 22 ------- null}
h -t 13.428352 -s 2 -d 0 -p ack -e 40 -c 0 -i 63 -a 0 -x {2.0 0.0 -1 ------- null}
r -t 13.430416 -s 2 -d 0 -p ack -e 40 -c 0 -i 63 -a 0 -x {2.0 0.0 22 ------- null}
+ -t 13.430416 -s 0 -d 2 -p tcp -e 1040 -c 0 -i 64 -a 0 -x {0.0 2.0 23 ------- null}
- -t 13.430416 -s 0 -d 2 -p tcp -e 1040 -c 0 -i 64 -a 0 -x {0.0 2.0 23 ------- null}
h -t 13.430416 -s 0 -d 2 -p tcp -e 1040 -c 0 -i 64 -a 0 -x {0.0 2.0 -1 ------- null}
+ -t 13.430416 -s 0 -d 2 -p tcp -e 1040 -c 0 -i 65 -a 0 -x {0.0 2.0 24 ------- null}
- -t 13.43408 -s 0 -d 2 -p tcp -e 1040 -c 0 -i 64 -a 0 -x {0.0 2.0 23 ------- null}
h -t 13.43408 -s 0 -d 2 -p tcp -e 1040 -c 0 -i 64 -a 0 -x {0.0 2.0 -1 ------- null}
- -t 13.437744 -s 0 -d 2 -p tcp -e 1040 -c 0 -i 65 -a 0 -x {0.0 2.0 24 ------- null}
h -t 13.437744 -s 0 -d 2 -p tcp -e 1040 -c 0 -i 65 -a 0 -x {0.0 2.0 -1 ------- null}
r -t 13.437744 -s 0 -d 2 -p tcp -e 1040 -c 0 -i 64 -a 0 -x {0.0 2.0 23 ------- null}
+ -t 13.437744 -s 2 -d 0 -p ack -e 40 -c 0 -i 66 -a 0 -x {2.0 0.0 26 ------- null}
- -t 13.437744 -s 2 -d 0 -p ack -e 40 -c 0 -i 66 -a 0 -x {2.0 0.0 26 ------- null}
h -t 13.437744 -s 2 -d 0 -p ack -e 40 -c 0 -i 66 -a 0 -x {2.0 0.0 -1 ------- null}
r -t 13.439808 -s 2 -d 0 -p ack -e 40 -c 0 -i 66 -a 0 -x {2.0 0.0 26 ------- null}
+ -t 13.439808 -s 0 -d 2 -p tcp -e 1040 -c 0 -i 67 -a 0 -x {0.0 2.0 27 ------- null}
+ -t 13.439808 -s 0 -d 2 -p tcp -e 1040 -c 0 -i 68 -a 0 -x {0.0 2.0 28 ------- null}
- -t 13.441408 -s 0 -d 2 -p tcp -e 1040 -c 0 -i 65 -a 0 -x {0.0 2.0 24 ------- null}
h -t 13.441408 -s 0 -d 2 -p tcp -e 1040 -c 0 -i 65 -a 0 -x {0.0 2.0 -1 ------- null}
- -t 13.445072 -s 0 -d 2 -p tcp -e 1040 -c 0 -i 65 -a 0 -x {0.0 2.0 24 ------- null}
h -t 13.445072 -s 0 -d 2 -p tcp -e 1040 -c 0 -i 65 -a 0 -x {0.0 2.0 -1 ------- null}
d -t 13.448736 -s 0 -d 2 -p tcp -e 1040 -c 0 -i 65 -a 0 -x {0.0 2.0 24 ------- null}
- -t 13.448736 -s 0 -d 2 -p tcp -e 1040 -c 0 -i 67 -a 0 -x {0.0 2.0 27 ------- null}
h -t 13.448736 -s 0 -d 2 -p tcp -e 1040 -c 0 -i 67 -a 0 -x {0.0 2.0 -1 ------- null}
- -t 13.4524 -s 0 -d 2 -p tcp -e 1040 -c 0 -i 68 -a 0 -x {0.0 2.0 28 ------- null}
h -t 13.4524 -s 0 -d 2 -p tcp -e 1040 -c 0 -i 68 -a 0 -x {0.0 2.0 -1 ------- null}
r -t 13.4524 -s 0 -d 2 -p tcp -e 1040 -c 0 -i 67 -a 0 -x {0.0 2.0 27 ------- null}
+ -t 13.4524 -s 2 -d 0 -p ack -e 40 -c 0 -i 69 -a 0 -x {2.0 0.0 27 ------- null}
- -t 13.4524 -s 2 -d 0 -p ack -e 40 -c 0 -i 69 -a 0 -x {2.0 0.0 27 ------- null}
h -t 13.4524 -s 2 -d 0 -p ack -e 40 -c 0 -i 69 -a 0 -x {2.0 0.0 -1 ------- null}
r -t 13.454464 -s 2 -d 0 -p ack -e 40 -c 0 -i 69 -a 0 -x {2.0 0.0 27 ------- null}
+ -t 13.454464 -s 0 -d 2 -p tcp -e 1040 -c 0 -i 70 -a 0 -x {0.0 2.0 29 ------- null}
- -t 13.456064 -s 0 -d 2 -p tcp -e 1040 -c 0 -i 70 -a 0 -x {0.0 2.0 29 ------- null}
h -t 13.456064 -s 0 -d 2 -p tcp -e 1040 -c 0 -i 70 -a 0 -x {0.0 2.0 -1 ------- null}
r -t 13.456064 -s 0 -d 2 -p tcp -e 1040 -c 0 -i 68 -a 0 -x {0.0 2.0 28 ------- null}
+ -t 13.456064 -s 2 -d 0 -p ack -e 40 -c 0 -i 71 -a 0 -x {2.0 0.0 28 ------- null}
- -t 13.456064 -s 2 -d 0 -p ack -e 40 -c 0 -i 71 -a 0 -x {2.0 0.0 28 ------- null}
h -t 13.456064 -s 2 -d 0 -p ack -e 40 -c 0 -i 71 -a 0 -x {2.0 0.0 -1 ------- null}
r -t 13.458128 -s 2 -d 0 -p ack -e 40 -c 0 -i 71 -a 0 -x {2.0 0.0 28 ------- null}
+ -t 13.458128 -s 0 -d 2 -p tcp -e 1040 -c 0 -i 72 -a 0 -x {0.0 2.0 30 ------- null}
+ -t 13.458128 -s 0 -d 2 -p tcp -e 1040 -c 0 -i 73 -a 0 -x {0.0 2.0 31 ------- null}
- -t 13.459728 -s 0 -d 2 -p tcp -e 1040 -c 0 -i 72 -a 0 -x {0.0 2.0 30 ------- null}
h -t 13.459728 -s 0 -d 2 -p tcp -e 1040 -c 0 -i 72 -a 0 -x {0.0 2.0 -1 ------- null}
r -t 13.459728 -s 0 -d 2 -p tcp -e 1040 -c 0 -i 70 -a 0 -x {0.0 2.0 29 ------- null}
+ -t 13.459728 -s 2 -d 0 -p ack -e 40 -c 0 -i 74 -a 0 -x {2.0 0.0 29 ------- null}
- -t 13.459728 -s 2 -d 0 -p ack -e 40 -c 0 -i 74 -a 0 -x {2.0 0.0 29 ------- null}
h -t 13.459728 -s 2 -d 0 -p ack -e 40 -c 0 -i 74 -a 0 -x {2.0 0.0 -1 ------- null}
r -t 13.461792 -s 2 -d 0 -p ack -e 40 -c 0 -i 74 -a 0 -x {2.0 0.0 29 ------- null}