s 0.009831431 _0_ MAC  --- 0 message 90 [0 ffffffff 0 800] ------- [0:255 -1:255 32 0] 
r 0.010552231 _4_ MAC  --- 0 message 32 [0 ffffffff 0 800] ------- [0:255 -1:255 32 0] 
r 0.010552231 _1_ MAC  --- 0 message 32 [0 ffffffff 0 800] ------- [0:255 -1:255 32 0] 
s 0.036774607 _2_ MAC  --- 1 message 90 [0 ffffffff 2 800] ------- [2:255 -1:255 32 0] 
r 0.037495407 _1_ MAC  --- 1 message 32 [0 ffffffff 2 800] ------- [2:255 -1:255 32 0] 
r 0.037495407 _6_ MAC  --- 1 message 32 [0 ffffffff 2 800] ------- [2:255 -1:255 32 0] 
r 0.037495407 _3_ MAC  --- 1 message 32 [0 ffffffff 2 800] ------- [2:255 -1:255 32 0] 
s 0.091030603 _13_ MAC  --- 2 message 90 [0 ffffffff d 800] ------- [13:255 -1:255 32 0] 
r 0.091751403 _9_ MAC  --- 2 message 32 [0 ffffffff d 800] ------- [13:255 -1:255 32 0] 
r 0.091751403 _12_ MAC  --- 2 message 32 [0 ffffffff d 800] ------- [13:255 -1:255 32 0] 
r 0.091751403 _14_ MAC  --- 2 message 32 [0 ffffffff d 800] ------- [13:255 -1:255 32 0] 
s 0.185078595 _3_ MAC  --- 3 message 90 [0 ffffffff 3 800] ------- [3:255 -1:255 32 0] 
r 0.185799395 _2_ MAC  --- 3 message 32 [0 ffffffff 3 800] ------- [3:255 -1:255 32 0] 
r 0.185799395 _7_ MAC  --- 3 message 32 [0 ffffffff 3 800] ------- [3:255 -1:255 32 0] 
s 0.234604987 _15_ MAC  --- 4 message 90 [0 ffffffff f 800] ------- [15:255 -1:255 32 0] 
r 0.235325787 _11_ MAC  --- 4 message 32 [0 ffffffff f 800] ------- [15:255 -1:255 32 0] 
r 0.235325787 _14_ MAC  --- 4 message 32 [0 ffffffff f 800] ------- [15:255 -1:255 32 0] 
s 0.329557798 _12_ MAC  --- 5 message 90 [0 ffffffff c 800] ------- [12:255 -1:255 32 0] 
r 0.330278598 _8_ MAC  --- 5 message 32 [0 ffffffff c 800] ------- [12:255 -1:255 32 0] 
r 0.330278598 _13_ MAC  --- 5 message 32 [0 ffffffff c 800] ------- [12:255 -1:255 32 0] 
s 0.479321153 _8_ MAC  --- 6 message 90 [0 ffffffff 8 800] ------- [8:255 -1:255 32 0] 
r 0.480041953 _4_ MAC  --- 6 message 32 [0 ffffffff 8 800] ------- [8:255 -1:255 32 0] 
r 0.480041953 _12_ MAC  --- 6 message 32 [0 ffffffff 8 800] ------- [8:255 -1:255 32 0] 
r 0.480041953 _9_ MAC  --- 6 message 32 [0 ffffffff 8 800] ------- [8:255 -1:255 32 0] 
s 0.618841199 _10_ MAC  --- 7 message 90 [0 ffffffff a 800] ------- [10:255 -1:255 32 0] 
r 0.619561999 _6_ MAC  --- 7 message 32 [0 ffffffff a 800] ------- [10:255 -1:255 32 0] 
r 0.619561999 _9_ MAC  --- 7 message 32 [0 ffffffff a 800] ------- [10:255 -1:255 32 0] 
r 0.619561999 _14_ MAC  --- 7 message 32 [0 ffffffff a 800] ------- [10:255 -1:255 32 0] 
r 0.619561999 _11_ MAC  --- 7 message 32 [0 ffffffff a 800] ------- [10:255 -1:255 32 0] 
s 0.633164782 _6_ MAC  --- 8 message 90 [0 ffffffff 6 800] ------- [6:255 -1:255 32 0] 
r 0.633885582 _2_ MAC  --- 8 message 32 [0 ffffffff 6 800] ------- [6:255 -1:255 32 0] 
r 0.633885582 _5_ MAC  --- 8 message 32 [0 ffffffff 6 800] ------- [6:255 -1:255 32 0] 
r 0.633885582 _10_ MAC  --- 8 message 32 [0 ffffffff 6 800] ------- [6:255 -1:255 32 0] 
r 0.633885582 _7_ MAC  --- 8 message 32 [0 ffffffff 6 800] ------- [6:255 -1:255 32 0] 
s 0.891348321 _4_ MAC  --- 9 message 90 [0 ffffffff 4 800] ------- [4:255 -1:255 32 0] 
r 0.892069121 _0_ MAC  --- 9 message 32 [0 ffffffff 4 800] ------- [4:255 -1:255 32 0] 
r 0.892069121 _8_ MAC  --- 9 message 32 [0 ffffffff 4 800] ------- [4:255 -1:255 32 0] 
r 0.892069121 _5_ MAC  --- 9 message 32 [0 ffffffff 4 800] ------- [4:255 -1:255 32 0] 
s 1.112112007 _1_ MAC  --- 10 message 90 [0 ffffffff 1 800] ------- [1:255 -1:255 32 0] 
r 1.112832807 _0_ MAC  --- 10 message 32 [0 ffffffff 1 800] ------- [1:255 -1:255 32 0] 
r 1.112832807 _5_ MAC  --- 10 message 32 [0 ffffffff 1 800] ------- [1:255 -1:255 32 0] 
r 1.112832807 _2_ MAC  --- 10 message 32 [0 ffffffff 1 800] ------- [1:255 -1:255 32 0] 
s 1.282517659 _14_ MAC  --- 12 message 90 [0 ffffffff e 800] ------- [14:255 -1:255 32 0] 
r 1.283238459 _10_ MAC  --- 12 message 32 [0 ffffffff e 800] ------- [14:255 -1:255 32 0] 
r 1.283238459 _13_ MAC  --- 12 message 32 [0 ffffffff e 800] ------- [14:255 -1:255 32 0] 
r 1.283238459 _15_ MAC  --- 12 message 32 [0 ffffffff e 800] ------- [14:255 -1:255 32 0] 
s 1.287573448 _9_ MAC  --- 11 message 90 [0 ffffffff 9 800] ------- [9:255 -1:255 32 0] 
r 1.288294248 _5_ MAC  --- 11 message 32 [0 ffffffff 9 800] ------- [9:255 -1:255 32 0] 
r 1.288294248 _8_ MAC  --- 11 message 32 [0 ffffffff 9 800] ------- [9:255 -1:255 32 0] 
r 1.288294248 _13_ MAC  --- 11 message 32 [0 ffffffff 9 800] ------- [9:255 -1:255 32 0] 
r 1.288294248 _10_ MAC  --- 11 message 32 [0 ffffffff 9 800] ------- [9:255 -1:255 32 0] 
s 1.599087241 _5_ MAC  --- 13 message 90 [0 ffffffff 5 800] ------- [5:255 -1:255 32 0] 
r 1.599808041 _1_ MAC  --- 13 message 32 [0 ffffffff 5 800] ------- [5:255 -1:255 32 0] 
r 1.599808041 _4_ MAC  --- 13 message 32 [0 ffffffff 5 800] ------- [5:255 -1:255 32 0] 
r 1.599808041 _9_ MAC  --- 13 message 32 [0 ffffffff 5 800] ------- [5:255 -1:255 32 0] 
r 1.599808041 _6_ MAC  --- 13 message 32 [0 ffffffff 5 800] ------- [5:255 -1:255 32 0] 
s 1.637439303 _7_ MAC  --- 14 message 90 [0 ffffffff 7 800] ------- [7:255 -1:255 32 0] 
r 1.638160103 _3_ MAC  --- 14 message 32 [0 ffffffff 7 800] ------- [7:255 -1:255 32 0] 
r 1.638160103 _6_ MAC  --- 14 message 32 [0 ffffffff 7 800] ------- [7:255 -1:255 32 0] 
r 1.638160103 _11_ MAC  --- 14 message 32 [0 ffffffff 7 800] ------- [7:255 -1:255 32 0] 
s 1.680122492 _11_ MAC  --- 15 message 90 [0 ffffffff b 800] ------- [11:255 -1:255 32 0] 
r 1.680843292 _7_ MAC  --- 15 message 32 [0 ffffffff b 800] ------- [11:255 -1:255 32 0] 
r 1.680843292 _10_ MAC  --- 15 message 32 [0 ffffffff b 800] ------- [11:255 -1:255 32 0] 
r 1.680843292 _15_ MAC  --- 15 message 32 [0 ffffffff b 800] ------- [11:255 -1:255 32 0] 
s 10.457800000 _7_ AGT  --- 16 cbr 500 [0 0 0 0] ------- [7:0 1:0 32 0] [0] 0 0
s 10.957800000 _7_ AGT  --- 17 cbr 500 [0 0 0 0] ------- [7:0 1:0 32 0] [1] 0 0
s 11.023400000 _0_ AGT  --- 18 cbr 500 [0 0 0 0] ------- [0:0 6:0 32 0] [0] 0 0
s 11.457800000 _7_ AGT  --- 19 cbr 500 [0 0 0 0] ------- [7:0 1:0 32 0] [2] 0 0
s 11.523400000 _0_ AGT  --- 20 cbr 500 [0 0 0 0] ------- [0:0 6:0 32 0] [1] 0 0
s 11.957800000 _7_ AGT  --- 21 cbr 500 [0 0 0 0] ------- [7:0 1:0 32 0] [3] 0 0
s 12.014812817 _1_ MAC  --- 23 message 90 [0 ffffffff 1 800] ------- [1:255 -1:255 32 0] 
r 12.015533617 _0_ MAC  --- 23 message 32 [0 ffffffff 1 800] ------- [1:255 -1:255 32 0] 
r 12.015533617 _5_ MAC  --- 23 message 32 [0 ffffffff 1 800] ------- [1:255 -1:255 32 0] 
r 12.015533617 _2_ MAC  --- 23 message 32 [0 ffffffff 1 800] ------- [1:255 -1:255 32 0] 
s 12.019212350 _4_ MAC  --- 22 message 90 [0 ffffffff 4 800] ------- [4:255 -1:255 32 0] 
r 12.019933150 _0_ MAC  --- 22 message 32 [0 ffffffff 4 800] ------- [4:255 -1:255 32 0] 
r 12.019933150 _8_ MAC  --- 22 message 32 [0 ffffffff 4 800] ------- [4:255 -1:255 32 0] 
r 12.019933150 _5_ MAC  --- 22 message 32 [0 ffffffff 4 800] ------- [4:255 -1:255 32 0] 
s 12.023400000 _0_ AGT  --- 24 cbr 500 [0 0 0 0] ------- [0:0 6:0 32 0] [2] 0 0
s 12.039435291 _6_ MAC  --- 25 message 90 [0 ffffffff 6 800] ------- [6:255 -1:255 32 0] 
r 12.040156091 _2_ MAC  --- 25 message 32 [0 ffffffff 6 800] ------- [6:255 -1:255 32 0] 
r 12.040156091 _5_ MAC  --- 25 message 32 [0 ffffffff 6 800] ------- [6:255 -1:255 32 0] 
r 12.040156091 _10_ MAC  --- 25 message 32 [0 ffffffff 6 800] ------- [6:255 -1:255 32 0] 
r 12.040156091 _7_ MAC  --- 25 message 32 [0 ffffffff 6 800] ------- [6:255 -1:255 32 0] 
s 12.042239182 _3_ MAC  --- 26 message 90 [0 ffffffff 3 800] ------- [3:255 -1:255 32 0] 
r 12.042959982 _2_ MAC  --- 26 message 32 [0 ffffffff 3 800] ------- [3:255 -1:255 32 0] 
r 12.042959982 _7_ MAC  --- 26 message 32 [0 ffffffff 3 800] ------- [3:255 -1:255 32 0] 
s 12.095573548 _9_ MAC  --- 27 message 90 [0 ffffffff 9 800] ------- [9:255 -1:255 32 0] 
r 12.096294348 _5_ MAC  --- 27 message 32 [0 ffffffff 9 800] ------- [9:255 -1:255 32 0] 
r 12.096294348 _8_ MAC  --- 27 message 32 [0 ffffffff 9 800] ------- [9:255 -1:255 32 0] 
r 12.096294348 _13_ MAC  --- 27 message 32 [0 ffffffff 9 800] ------- [9:255 -1:255 32 0] 
r 12.096294348 _10_ MAC  --- 27 message 32 [0 ffffffff 9 800] ------- [9:255 -1:255 32 0] 
s 12.098968301 _12_ MAC  --- 28 message 90 [0 ffffffff c 800] ------- [12:255 -1:255 32 0] 
r 12.099689101 _8_ MAC  --- 28 message 32 [0 ffffffff c 800] ------- [12:255 -1:255 32 0] 
r 12.099689101 _13_ MAC  --- 28 message 32 [0 ffffffff c 800] ------- [12:255 -1:255 32 0] 
s 12.100970795 _14_ MAC  --- 29 message 90 [0 ffffffff e 800] ------- [14:255 -1:255 32 0] 
r 12.101691595 _10_ MAC  --- 29 message 32 [0 ffffffff e 800] ------- [14:255 -1:255 32 0] 
r 12.101691595 _13_ MAC  --- 29 message 32 [0 ffffffff e 800] ------- [14:255 -1:255 32 0] 
r 12.101691595 _15_ MAC  --- 29 message 32 [0 ffffffff e 800] ------- [14:255 -1:255 32 0] 
s 12.194377713 _7_ MAC  --- 31 message 90 [0 ffffffff 7 800] ------- [7:255 -1:255 32 0] 
r 12.195098513 _3_ MAC  --- 31 message 32 [0 ffffffff 7 800] ------- [7:255 -1:255 32 0] 
r 12.195098513 _6_ MAC  --- 31 message 32 [0 ffffffff 7 800] ------- [7:255 -1:255 32 0] 
r 12.195098513 _11_ MAC  --- 31 message 32 [0 ffffffff 7 800] ------- [7:255 -1:255 32 0] 
s 12.196012844 _2_ MAC  --- 30 message 90 [0 ffffffff 2 800] ------- [2:255 -1:255 32 0] 
r 12.196733644 _1_ MAC  --- 30 message 32 [0 ffffffff 2 800] ------- [2:255 -1:255 32 0] 
r 12.196733644 _6_ MAC  --- 30 message 32 [0 ffffffff 2 800] ------- [2:255 -1:255 32 0] 
r 12.196733644 _3_ MAC  --- 30 message 32 [0 ffffffff 2 800] ------- [2:255 -1:255 32 0] 
s 12.243322070 _11_ MAC  --- 32 message 90 [0 ffffffff b 800] ------- [11:255 -1:255 32 0] 
r 12.244042870 _7_ MAC  --- 32 message 32 [0 ffffffff b 800] ------- [11:255 -1:255 32 0] 
r 12.244042870 _10_ MAC  --- 32 message 32 [0 ffffffff b 800] ------- [11:255 -1:255 32 0] 
r 12.244042870 _15_ MAC  --- 32 message 32 [0 ffffffff b 800] ------- [11:255 -1:255 32 0] 
s 12.245600000 _7_ AGT  --- 34 cbr 500 [0 0 0 0] ------- [7:1 15:0 32 0] [0] 0 0
s 12.246175000 _7_ MAC  --- 0 ARP 86 [0 ffffffff 7 806] ------- [REQUEST 7/7 0/11]
r 12.246863800 _3_ MAC  --- 0 ARP 28 [0 ffffffff 7 806] ------- [REQUEST 7/7 0/11]
r 12.246863800 _6_ MAC  --- 0 ARP 28 [0 ffffffff 7 806] ------- [REQUEST 7/7 0/11]
r 12.246863800 _11_ MAC  --- 0 ARP 28 [0 ffffffff 7 806] ------- [REQUEST 7/7 0/11]
s 12.246938800 _11_ MAC  --- 0 RTS 44 [52e 7 b 0] 
r 12.247291600 _7_ MAC  --- 0 RTS 44 [52e 7 b 0] 
s 12.247301600 _7_ MAC  --- 0 CTS 38 [3f4 b 0 0] 
r 12.247606400 _11_ MAC  --- 0 CTS 38 [3f4 b 0 0] 
s 12.247616400 _11_ MAC  --- 0 ARP 86 [13a 7 b 806] ------- [REPLY 11/11 7/7]
r 12.248305200 _7_ MAC  --- 0 ARP 28 [13a 7 b 806] ------- [REPLY 11/11 7/7]
s 12.248315200 _7_ MAC  --- 0 ACK 38 [0 b 0 0] 
r 12.248620000 _11_ MAC  --- 0 ACK 38 [0 b 0 0] 
s 12.249000000 _3_ MAC  --- 33 message 102 [0 ffffffff 3 800] ------- [3:255 -1:255 32 0] 
r 12.249816800 _2_ MAC  --- 33 message 44 [0 ffffffff 3 800] ------- [3:255 -1:255 32 0] 
r 12.249816800 _7_ MAC  --- 33 message 44 [0 ffffffff 3 800] ------- [3:255 -1:255 32 0] 
s 12.249946800 _7_ MAC  --- 0 RTS 44 [148e b 7 0] 
r 12.250299600 _11_ MAC  --- 0 RTS 44 [148e b 7 0] 
s 12.250309600 _11_ MAC  --- 0 CTS 38 [1354 7 0 0] 
r 12.250614400 _7_ MAC  --- 0 CTS 38 [1354 7 0 0] 
s 12.250624400 _7_ MAC  --- 34 cbr 578 [13a b 7 800] ------- [7:1 15:0 32 11] [0] 0 0
r 12.255249200 _11_ MAC  --- 34 cbr 520 [13a b 7 800] ------- [7:1 15:0 32 11] [0] 1 0
s 12.255259200 _11_ MAC  --- 0 ACK 38 [0 7 0 0] 
r 12.255564000 _7_ MAC  --- 0 ACK 38 [0 7 0 0] 
s 12.255873200 _11_ MAC  --- 0 ARP 86 [0 ffffffff b 806] ------- [REQUEST 11/11 0/15]
r 12.256562000 _7_ MAC  --- 0 ARP 28 [0 ffffffff b 806] ------- [REQUEST 11/11 0/15]
r 12.256562000 _10_ MAC  --- 0 ARP 28 [0 ffffffff b 806] ------- [REQUEST 11/11 0/15]
r 12.256562000 _15_ MAC  --- 0 ARP 28 [0 ffffffff b 806] ------- [REQUEST 11/11 0/15]
s 12.256997000 _15_ MAC  --- 0 RTS 44 [52e b f 0] 
r 12.257349800 _11_ MAC  --- 0 RTS 44 [52e b f 0] 
s 12.257359800 _11_ MAC  --- 0 CTS 38 [3f4 f 0 0] 
r 12.257664600 _15_ MAC  --- 0 CTS 38 [3f4 f 0 0] 
s 12.257674600 _15_ MAC  --- 0 ARP 86 [13a b f 806] ------- [REPLY 15/15 11/11]
r 12.258363400 _11_ MAC  --- 0 ARP 28 [13a b f 806] ------- [REPLY 15/15 11/11]
s 12.258373400 _11_ MAC  --- 0 ACK 38 [0 f 0 0] 
r 12.258678200 _15_ MAC  --- 0 ACK 38 [0 f 0 0] 
s 12.259167400 _11_ MAC  --- 0 RTS 44 [148e f b 0] 
r 12.259520200 _15_ MAC  --- 0 RTS 44 [148e f b 0] 
s 12.259530200 _15_ MAC  --- 0 CTS 38 [1354 b 0 0] 
r 12.259835000 _11_ MAC  --- 0 CTS 38 [1354 b 0 0] 
s 12.259845000 _11_ MAC  --- 34 cbr 578 [13a f b 800] ------- [7:1 15:0 31 15] [0] 1 0
r 12.264469800 _15_ MAC  --- 34 cbr 520 [13a f b 800] ------- [7:1 15:0 31 15] [0] 2 0
s 12.264479800 _15_ MAC  --- 0 ACK 38 [0 b 0 0] 
r 12.264494800 _15_ AGT  --- 34 cbr 520 [13a f b 800] ------- [7:1 15:0 31 15] [0] 2 0
r 12.264784600 _11_ MAC  --- 0 ACK 38 [0 b 0 0] 
s 12.332503735 _13_ MAC  --- 36 message 90 [0 ffffffff d 800] ------- [13:255 -1:255 32 0] 
r 12.333224535 _9_ MAC  --- 36 message 32 [0 ffffffff d 800] ------- [13:255 -1:255 32 0] 
r 12.333224535 _12_ MAC  --- 36 message 32 [0 ffffffff d 800] ------- [13:255 -1:255 32 0] 
r 12.333224535 _14_ MAC  --- 36 message 32 [0 ffffffff d 800] ------- [13:255 -1:255 32 0] 
s 12.339026426 _8_ MAC  --- 35 message 90 [0 ffffffff 8 800] ------- [8:255 -1:255 32 0] 
r 12.339747226 _4_ MAC  --- 35 message 32 [0 ffffffff 8 800] ------- [8:255 -1:255 32 0] 
r 12.339747226 _12_ MAC  --- 35 message 32 [0 ffffffff 8 800] ------- [8:255 -1:255 32 0] 
r 12.339747226 _9_ MAC  --- 35 message 32 [0 ffffffff 8 800] ------- [8:255 -1:255 32 0] 
s 12.457800000 _7_ AGT  --- 37 cbr 500 [0 0 0 0] ------- [7:0 1:0 32 0] [4] 0 0
s 12.523400000 _0_ AGT  --- 38 cbr 500 [0 0 0 0] ------- [0:0 6:0 32 0] [3] 0 0
s 12.586658203 _2_ MAC  --- 39 message 90 [0 ffffffff 2 800] ------- [2:255 -1:255 32 0] 
r 12.587379003 _1_ MAC  --- 39 message 32 [0 ffffffff 2 800] ------- [2:255 -1:255 32 0] 
r 12.587379003 _6_ MAC  --- 39 message 32 [0 ffffffff 2 800] ------- [2:255 -1:255 32 0] 
r 12.587379003 _3_ MAC  --- 39 message 32 [0 ffffffff 2 800] ------- [2:255 -1:255 32 0] 
s 12.635152561 _10_ MAC  --- 41 message 90 [0 ffffffff a 800] ------- [10:255 -1:255 32 0] 
r 12.635873361 _6_ MAC  --- 41 message 32 [0 ffffffff a 800] ------- [10:255 -1:255 32 0] 
r 12.635873361 _9_ MAC  --- 41 message 32 [0 ffffffff a 800] ------- [10:255 -1:255 32 0] 
r 12.635873361 _14_ MAC  --- 41 message 32 [0 ffffffff a 800] ------- [10:255 -1:255 32 0] 
r 12.635873361 _11_ MAC  --- 41 message 32 [0 ffffffff a 800] ------- [10:255 -1:255 32 0] 
s 12.642807995 _5_ MAC  --- 40 message 90 [0 ffffffff 5 800] ------- [5:255 -1:255 32 0] 
r 12.643528795 _1_ MAC  --- 40 message 32 [0 ffffffff 5 800] ------- [5:255 -1:255 32 0] 
r 12.643528795 _4_ MAC  --- 40 message 32 [0 ffffffff 5 800] ------- [5:255 -1:255 32 0] 
r 12.643528795 _9_ MAC  --- 40 message 32 [0 ffffffff 5 800] ------- [5:255 -1:255 32 0] 
r 12.643528795 _6_ MAC  --- 40 message 32 [0 ffffffff 5 800] ------- [5:255 -1:255 32 0] 
s 12.718400000 _2_ AGT  --- 42 cbr 500 [0 0 0 0] ------- [2:0 8:0 32 0] [0] 0 0
s 12.745600000 _7_ AGT  --- 43 cbr 500 [0 0 0 0] ------- [7:1 15:0 32 0] [1] 0 0
s 12.745915000 _7_ MAC  --- 0 RTS 44 [148e b 7 0] 
r 12.746267800 _11_ MAC  --- 0 RTS 44 [148e b 7 0] 
s 12.746277800 _11_ MAC  --- 0 CTS 38 [1354 7 0 0] 
r 12.746582600 _7_ MAC  --- 0 CTS 38 [1354 7 0 0] 
s 12.746592600 _7_ MAC  --- 43 cbr 578 [13a b 7 800] ------- [7:1 15:0 32 11] [1] 0 0
r 12.751217400 _11_ MAC  --- 43 cbr 520 [13a b 7 800] ------- [7:1 15:0 32 11] [1] 1 0
s 12.751227400 _11_ MAC  --- 0 ACK 38 [0 7 0 0] 
r 12.751532200 _7_ MAC  --- 0 ACK 38 [0 7 0 0] 
s 12.752101400 _11_ MAC  --- 0 RTS 44 [148e f b 0] 
r 12.752454200 _15_ MAC  --- 0 RTS 44 [148e f b 0] 
s 12.752464200 _15_ MAC  --- 0 CTS 38 [1354 b 0 0] 
r 12.752769000 _11_ MAC  --- 0 CTS 38 [1354 b 0 0] 
s 12.752779000 _11_ MAC  --- 43 cbr 578 [13a f b 800] ------- [7:1 15:0 31 15] [1] 1 0
r 12.757403800 _15_ MAC  --- 43 cbr 520 [13a f b 800] ------- [7:1 15:0 31 15] [1] 2 0
s 12.757413800 _15_ MAC  --- 0 ACK 38 [0 b 0 0] 
r 12.757428800 _15_ AGT  --- 43 cbr 520 [13a f b 800] ------- [7:1 15:0 31 15] [1] 2 0
r 12.757718600 _11_ MAC  --- 0 ACK 38 [0 b 0 0] 
s 12.848481297 _0_ MAC  --- 44 message 90 [0 ffffffff 0 800] ------- [0:255 -1:255 32 0] 
r 12.849202097 _4_ MAC  --- 44 message 32 [0 ffffffff 0 800] ------- [0:255 -1:255 32 0] 
r 12.849202097 _1_ MAC  --- 44 message 32 [0 ffffffff 0 800] ------- [0:255 -1:255 32 0] 
s 12.849737086 _6_ MAC  --- 45 message 102 [0 ffffffff 6 800] ------- [6:255 -1:255 32 0] 
r 12.850553886 _2_ MAC  --- 45 message 44 [0 ffffffff 6 800] ------- [6:255 -1:255 32 0] 
r 12.850553886 _5_ MAC  --- 45 message 44 [0 ffffffff 6 800] ------- [6:255 -1:255 32 0] 
r 12.850553886 _10_ MAC  --- 45 message 44 [0 ffffffff 6 800] ------- [6:255 -1:255 32 0] 
r 12.850553886 _7_ MAC  --- 45 message 44 [0 ffffffff 6 800] ------- [6:255 -1:255 32 0] 
s 12.957800000 _7_ AGT  --- 46 cbr 500 [0 0 0 0] ------- [7:0 1:0 32 0] [5] 0 0
D 12.957800000 _7_ RTR  IFQ 16 cbr 520 [0 0 0 0] ------- [7:0 1:0 32 0] [0] 0 0
s 13.020970538 _4_ MAC  --- 48 message 90 [0 ffffffff 4 800] ------- [4:255 -1:255 32 0] 
r 13.021691338 _0_ MAC  --- 48 message 32 [0 ffffffff 4 800] ------- [4:255 -1:255 32 0] 
r 13.021691338 _8_ MAC  --- 48 message 32 [0 ffffffff 4 800] ------- [4:255 -1:255 32 0] 
r 13.021691338 _5_ MAC  --- 48 message 32 [0 ffffffff 4 800] ------- [4:255 -1:255 32 0] 
s 13.023400000 _0_ AGT  --- 49 cbr 500 [0 0 0 0] ------- [0:0 6:0 32 0] [4] 0 0
s 13.090936751 _13_ MAC  --- 50 message 102 [0 ffffffff d 800] ------- [13:255 -1:255 32 0] 
r 13.091753551 _9_ MAC  --- 50 message 44 [0 ffffffff d 800] ------- [13:255 -1:255 32 0] 
r 13.091753551 _12_ MAC  --- 50 message 44 [0 ffffffff d 800] ------- [13:255 -1:255 32 0] 
r 13.091753551 _14_ MAC  --- 50 message 44 [0 ffffffff d 800] ------- [13:255 -1:255 32 0] 
s 13.094470228 _14_ MAC  --- 51 message 114 [0 ffffffff e 800] ------- [14:255 -1:255 32 0] 
r 13.095383028 _10_ MAC  --- 51 message 56 [0 ffffffff e 800] ------- [14:255 -1:255 32 0] 
r 13.095383028 _13_ MAC  --- 51 message 56 [0 ffffffff e 800] ------- [14:255 -1:255 32 0] 
r 13.095383028 _15_ MAC  --- 51 message 56 [0 ffffffff e 800] ------- [14:255 -1:255 32 0] 
s 13.097271528 _12_ MAC  --- 54 message 102 [0 ffffffff c 800] ------- [12:255 -1:255 32 0] 
r 13.098088328 _8_ MAC  --- 54 message 44 [0 ffffffff c 800] ------- [12:255 -1:255 32 0] 
r 13.098088328 _13_ MAC  --- 54 message 44 [0 ffffffff c 800] ------- [12:255 -1:255 32 0] 
s 13.099022659 _9_ MAC  --- 53 message 114 [0 ffffffff 9 800] ------- [9:255 -1:255 32 0] 
r 13.099935459 _5_ MAC  --- 53 message 56 [0 ffffffff 9 800] ------- [9:255 -1:255 32 0] 
r 13.099935459 _8_ MAC  --- 53 message 56 [0 ffffffff 9 800] ------- [9:255 -1:255 32 0] 
r 13.099935459 _13_ MAC  --- 53 message 56 [0 ffffffff 9 800] ------- [9:255 -1:255 32 0] 
r 13.099935459 _10_ MAC  --- 53 message 56 [0 ffffffff 9 800] ------- [9:255 -1:255 32 0] 
s 13.100449790 _12_ MAC  --- 52 message 102 [0 ffffffff c 800] ------- [12:255 -1:255 32 0] 
r 13.101266590 _8_ MAC  --- 52 message 44 [0 ffffffff c 800] ------- [12:255 -1:255 32 0] 
r 13.101266590 _13_ MAC  --- 52 message 44 [0 ffffffff c 800] ------- [12:255 -1:255 32 0] 
s 13.115356289 _4_ MAC  --- 55 message 102 [0 ffffffff 4 800] ------- [4:255 -1:255 32 0] 
r 13.116173089 _0_ MAC  --- 55 message 44 [0 ffffffff 4 800] ------- [4:255 -1:255 32 0] 
r 13.116173089 _8_ MAC  --- 55 message 44 [0 ffffffff 4 800] ------- [4:255 -1:255 32 0] 
r 13.116173089 _5_ MAC  --- 55 message 44 [0 ffffffff 4 800] ------- [4:255 -1:255 32 0] 
s 13.216321023 _7_ MAC  --- 57 message 90 [0 ffffffff 7 800] ------- [7:255 -1:255 32 0] 
r 13.217041823 _3_ MAC  --- 57 message 32 [0 ffffffff 7 800] ------- [7:255 -1:255 32 0] 
r 13.217041823 _6_ MAC  --- 57 message 32 [0 ffffffff 7 800] ------- [7:255 -1:255 32 0] 
r 13.217041823 _11_ MAC  --- 57 message 32 [0 ffffffff 7 800] ------- [7:255 -1:255 32 0] 
s 13.218400000 _2_ AGT  --- 58 cbr 500 [0 0 0 0] ------- [2:0 8:0 32 0] [1] 0 0
s 13.242529307 _11_ MAC  --- 59 message 102 [0 ffffffff b 800] ------- [11:255 -1:255 32 0] 
r 13.243346107 _7_ MAC  --- 59 message 44 [0 ffffffff b 800] ------- [11:255 -1:255 32 0] 
r 13.243346107 _10_ MAC  --- 59 message 44 [0 ffffffff b 800] ------- [11:255 -1:255 32 0] 
r 13.243346107 _15_ MAC  --- 59 message 44 [0 ffffffff b 800] ------- [11:255 -1:255 32 0] 
s 13.245600000 _7_ AGT  --- 60 cbr 500 [0 0 0 0] ------- [7:1 15:0 32 0] [2] 0 0
s 13.245755000 _7_ MAC  --- 0 RTS 44 [148e b 7 0] 
r 13.246107800 _11_ MAC  --- 0 RTS 44 [148e b 7 0] 
s 13.246117800 _11_ MAC  --- 0 CTS 38 [1354 7 0 0] 
r 13.246422600 _7_ MAC  --- 0 CTS 38 [1354 7 0 0] 
s 13.246432600 _7_ MAC  --- 60 cbr 578 [13a b 7 800] ------- [7:1 15:0 32 11] [2] 0 0
r 13.251057400 _11_ MAC  --- 60 cbr 520 [13a b 7 800] ------- [7:1 15:0 32 11] [2] 1 0
s 13.251067400 _11_ MAC  --- 0 ACK 38 [0 7 0 0] 
r 13.251372200 _7_ MAC  --- 0 ACK 38 [0 7 0 0] 
s 13.251981400 _11_ MAC  --- 0 RTS 44 [148e f b 0] 
r 13.252334200 _15_ MAC  --- 0 RTS 44 [148e f b 0] 
s 13.252344200 _15_ MAC  --- 0 CTS 38 [1354 b 0 0] 
r 13.252649000 _11_ MAC  --- 0 CTS 38 [1354 b 0 0] 
s 13.252659000 _11_ MAC  --- 60 cbr 578 [13a f b 800] ------- [7:1 15:0 31 15] [2] 1 0
r 13.257283800 _15_ MAC  --- 60 cbr 520 [13a f b 800] ------- [7:1 15:0 31 15] [2] 2 0
s 13.257293800 _15_ MAC  --- 0 ACK 38 [0 b 0 0] 
r 13.257308800 _15_ AGT  --- 60 cbr 520 [13a f b 800] ------- [7:1 15:0 31 15] [2] 2 0
r 13.257598600 _11_ MAC  --- 0 ACK 38 [0 b 0 0] 
s 13.287868752 _15_ MAC  --- 61 message 90 [0 ffffffff f 800] ------- [15:255 -1:255 32 0] 
r 13.288589552 _11_ MAC  --- 61 message 32 [0 ffffffff f 800] ------- [15:255 -1:255 32 0] 
r 13.288589552 _14_ MAC  --- 61 message 32 [0 ffffffff f 800] ------- [15:255 -1:255 32 0] 
s 13.339472325 _8_ MAC  --- 62 message 90 [0 ffffffff 8 800] ------- [8:255 -1:255 32 0] 
r 13.340193125 _4_ MAC  --- 62 message 32 [0 ffffffff 8 800] ------- [8:255 -1:255 32 0] 
r 13.340193125 _12_ MAC  --- 62 message 32 [0 ffffffff 8 800] ------- [8:255 -1:255 32 0] 
r 13.340193125 _9_ MAC  --- 62 message 32 [0 ffffffff 8 800] ------- [8:255 -1:255 32 0] 
s 13.457800000 _7_ AGT  --- 63 cbr 500 [0 0 0 0] ------- [7:0 1:0 32 0] [6] 0 0
D 13.457800000 _7_ RTR  IFQ 17 cbr 520 [0 0 0 0] ------- [7:0 1:0 32 0] [1] 0 0
s 13.523400000 _0_ AGT  --- 64 cbr 500 [0 0 0 0] ------- [0:0 6:0 32 0] [5] 0 0
D 13.523400000 _0_ RTR  IFQ 18 cbr 520 [0 0 0 0] ------- [0:0 6:0 32 0] [0] 0 0
s 13.587483889 _2_ MAC  --- 65 message 90 [0 ffffffff 2 800] ------- [2:255 -1:255 32 0] 
r 13.588204689 _1_ MAC  --- 65 message 32 [0 ffffffff 2 800] ------- [2:255 -1:255 32 0] 
r 13.588204689 _6_ MAC  --- 65 message 32 [0 ffffffff 2 800] ------- [2:255 -1:255 32 0] 
r 13.588204689 _3_ MAC  --- 65 message 32 [0 ffffffff 2 800] ------- [2:255 -1:255 32 0] 
s 13.594327646 _1_ MAC  --- 66 message 90 [0 ffffffff 1 800] ------- [1:255 -1:255 32 0] 
r 13.595048446 _0_ MAC  --- 66 message 32 [0 ffffffff 1 800] ------- [1:255 -1:255 32 0] 
r 13.595048446 _5_ MAC  --- 66 message 32 [0 ffffffff 1 800] ------- [1:255 -1:255 32 0] 
r 13.595048446 _2_ MAC  --- 66 message 32 [0 ffffffff 1 800] ------- [1:255 -1:255 32 0] 
s 13.638664393 _10_ MAC  --- 68 message 102 [0 ffffffff a 800] ------- [10:255 -1:255 32 0] 
r 13.639481193 _6_ MAC  --- 68 message 44 [0 ffffffff a 800] ------- [10:255 -1:255 32 0] 
r 13.639481193 _9_ MAC  --- 68 message 44 [0 ffffffff a 800] ------- [10:255 -1:255 32 0] 
r 13.639481193 _14_ MAC  --- 68 message 44 [0 ffffffff a 800] ------- [10:255 -1:255 32 0] 
r 13.639481193 _11_ MAC  --- 68 message 44 [0 ffffffff a 800] ------- [10:255 -1:255 32 0] 
s 13.641367224 _5_ MAC  --- 67 message 90 [0 ffffffff 5 800] ------- [5:255 -1:255 32 0] 
r 13.642088024 _1_ MAC  --- 67 message 32 [0 ffffffff 5 800] ------- [5:255 -1:255 32 0] 
r 13.642088024 _4_ MAC  --- 67 message 32 [0 ffffffff 5 800] ------- [5:255 -1:255 32 0] 
r 13.642088024 _9_ MAC  --- 67 message 32 [0 ffffffff 5 800] ------- [5:255 -1:255 32 0] 
r 13.642088024 _6_ MAC  --- 67 message 32 [0 ffffffff 5 800] ------- [5:255 -1:255 32 0] 
s 13.718400000 _2_ AGT  --- 70 cbr 500 [0 0 0 0] ------- [2:0 8:0 32 0] [2] 0 0
s 13.745600000 _7_ AGT  --- 71 cbr 500 [0 0 0 0] ------- [7:1 15:0 32 0] [3] 0 0
s 13.745775000 _7_ MAC  --- 0 RTS 44 [148e b 7 0] 
r 13.746127800 _11_ MAC  --- 0 RTS 44 [148e b 7 0] 
s 13.746137800 _11_ MAC  --- 0 CTS 38 [1354 7 0 0] 
r 13.746442600 _7_ MAC  --- 0 CTS 38 [1354 7 0 0] 
s 13.746452600 _7_ MAC  --- 71 cbr 578 [13a b 7 800] ------- [7:1 15:0 32 11] [3] 0 0
r 13.751077400 _11_ MAC  --- 71 cbr 520 [13a b 7 800] ------- [7:1 15:0 32 11] [3] 1 0
s 13.751087400 _11_ MAC  --- 0 ACK 38 [0 7 0 0] 
r 13.751392200 _7_ MAC  --- 0 ACK 38 [0 7 0 0] 
s 13.751801400 _11_ MAC  --- 0 RTS 44 [148e f b 0] 
r 13.752154200 _15_ MAC  --- 0 RTS 44 [148e f b 0] 
s 13.752164200 _15_ MAC  --- 0 CTS 38 [1354 b 0 0] 
r 13.752469000 _11_ MAC  --- 0 CTS 38 [1354 b 0 0] 
s 13.752479000 _11_ MAC  --- 71 cbr 578 [13a f b 800] ------- [7:1 15:0 31 15] [3] 1 0
r 13.757103800 _15_ MAC  --- 71 cbr 520 [13a f b 800] ------- [7:1 15:0 31 15] [3] 2 0
s 13.757113800 _15_ MAC  --- 0 ACK 38 [0 b 0 0] 
r 13.757128800 _15_ AGT  --- 71 cbr 520 [13a f b 800] ------- [7:1 15:0 31 15] [3] 2 0
r 13.757418600 _11_ MAC  --- 0 ACK 38 [0 b 0 0] 
s 13.844500670 _6_ MAC  --- 73 message 90 [0 ffffffff 6 800] ------- [6:255 -1:255 32 0] 
r 13.845221470 _2_ MAC  --- 73 message 32 [0 ffffffff 6 800] ------- [6:255 -1:255 32 0] 
r 13.845221470 _5_ MAC  --- 73 message 32 [0 ffffffff 6 800] ------- [6:255 -1:255 32 0] 
r 13.845221470 _10_ MAC  --- 73 message 32 [0 ffffffff 6 800] ------- [6:255 -1:255 32 0] 
r 13.845221470 _7_ MAC  --- 73 message 32 [0 ffffffff 6 800] ------- [6:255 -1:255 32 0] 
s 13.957800000 _7_ AGT  --- 74 cbr 500 [0 0 0 0] ------- [7:0 1:0 32 0] [7] 0 0
D 13.957800000 _7_ RTR  IFQ 19 cbr 520 [0 0 0 0] ------- [7:0 1:0 32 0] [2] 0 0
s 14.023400000 _0_ AGT  --- 75 cbr 500 [0 0 0 0] ------- [0:0 6:0 32 0] [6] 0 0
D 14.023400000 _0_ RTR  IFQ 20 cbr 520 [0 0 0 0] ------- [0:0 6:0 32 0] [1] 0 0
s 14.088025181 _13_ MAC  --- 76 message 102 [0 ffffffff d 800] ------- [13:255 -1:255 32 0] 
r 14.088841981 _9_ MAC  --- 76 message 44 [0 ffffffff d 800] ------- [13:255 -1:255 32 0] 
r 14.088841981 _12_ MAC  --- 76 message 44 [0 ffffffff d 800] ------- [13:255 -1:255 32 0] 
r 14.088841981 _14_ MAC  --- 76 message 44 [0 ffffffff d 800] ------- [13:255 -1:255 32 0] 
s 14.095784708 _9_ MAC  --- 77 message 114 [0 ffffffff 9 800] ------- [9:255 -1:255 32 0] 
r 14.096697508 _5_ MAC  --- 77 message 56 [0 ffffffff 9 800] ------- [9:255 -1:255 32 0] 
r 14.096697508 _8_ MAC  --- 77 message 56 [0 ffffffff 9 800] ------- [9:255 -1:255 32 0] 
r 14.096697508 _13_ MAC  --- 77 message 56 [0 ffffffff 9 800] ------- [9:255 -1:255 32 0] 
r 14.096697508 _10_ MAC  --- 77 message 56 [0 ffffffff 9 800] ------- [9:255 -1:255 32 0] 
s 14.109668828 _10_ MAC  --- 78 message 126 [0 ffffffff a 800] ------- [10:255 -1:255 32 0] 
r 14.110677628 _6_ MAC  --- 78 message 68 [0 ffffffff a 800] ------- [10:255 -1:255 32 0] 
r 14.110677628 _9_ MAC  --- 78 message 68 [0 ffffffff a 800] ------- [10:255 -1:255 32 0] 
r 14.110677628 _14_ MAC  --- 78 message 68 [0 ffffffff a 800] ------- [10:255 -1:255 32 0] 
r 14.110677628 _11_ MAC  --- 78 message 68 [0 ffffffff a 800] ------- [10:255 -1:255 32 0] 
s 14.118729731 _4_ MAC  --- 79 message 90 [0 ffffffff 4 800] ------- [4:255 -1:255 32 0] 
r 14.119450531 _0_ MAC  --- 79 message 32 [0 ffffffff 4 800] ------- [4:255 -1:255 32 0] 
r 14.119450531 _8_ MAC  --- 79 message 32 [0 ffffffff 4 800] ------- [4:255 -1:255 32 0] 
r 14.119450531 _5_ MAC  --- 79 message 32 [0 ffffffff 4 800] ------- [4:255 -1:255 32 0] 
s 14.214751216 _7_ MAC  --- 80 message 90 [0 ffffffff 7 800] ------- [7:255 -1:255 32 0] 
r 14.215472016 _3_ MAC  --- 80 message 32 [0 ffffffff 7 800] ------- [7:255 -1:255 32 0] 
r 14.215472016 _6_ MAC  --- 80 message 32 [0 ffffffff 7 800] ------- [7:255 -1:255 32 0] 
r 14.215472016 _11_ MAC  --- 80 message 32 [0 ffffffff 7 800] ------- [7:255 -1:255 32 0] 
s 14.218400000 _2_ AGT  --- 81 cbr 500 [0 0 0 0] ------- [2:0 8:0 32 0] [3] 0 0
s 14.238872341 _11_ MAC  --- 82 message 90 [0 ffffffff b 800] ------- [11:255 -1:255 32 0] 
r 14.239593141 _7_ MAC  --- 82 message 32 [0 ffffffff b 800] ------- [11:255 -1:255 32 0] 
r 14.239593141 _10_ MAC  --- 82 message 32 [0 ffffffff b 800] ------- [11:255 -1:255 32 0] 
r 14.239593141 _15_ MAC  --- 82 message 32 [0 ffffffff b 800] ------- [11:255 -1:255 32 0] 
s 14.245600000 _7_ AGT  --- 83 cbr 500 [0 0 0 0] ------- [7:1 15:0 32 0] [4] 0 0
s 14.246155000 _7_ MAC  --- 0 RTS 44 [148e b 7 0] 
r 14.246507800 _11_ MAC  --- 0 RTS 44 [148e b 7 0] 
s 14.246517800 _11_ MAC  --- 0 CTS 38 [1354 7 0 0] 
r 14.246822600 _7_ MAC  --- 0 CTS 38 [1354 7 0 0] 
s 14.246832600 _7_ MAC  --- 83 cbr 578 [13a b 7 800] ------- [7:1 15:0 32 11] [4] 0 0
r 14.251457400 _11_ MAC  --- 83 cbr 520 [13a b 7 800] ------- [7:1 15:0 32 11] [4] 1 0
s 14.251467400 _11_ MAC  --- 0 ACK 38 [0 7 0 0] 
r 14.251772200 _7_ MAC  --- 0 ACK 38 [0 7 0 0] 
s 14.252261400 _11_ MAC  --- 0 RTS 44 [148e f b 0] 
r 14.252614200 _15_ MAC  --- 0 RTS 44 [148e f b 0] 
s 14.252624200 _15_ MAC  --- 0 CTS 38 [1354 b 0 0] 
r 14.252929000 _11_ MAC  --- 0 CTS 38 [1354 b 0 0] 
s 14.252939000 _11_ MAC  --- 83 cbr 578 [13a f b 800] ------- [7:1 15:0 31 15] [4] 1 0
r 14.257563800 _15_ MAC  --- 83 cbr 520 [13a f b 800] ------- [7:1 15:0 31 15] [4] 2 0
s 14.257573800 _15_ MAC  --- 0 ACK 38 [0 b 0 0] 
r 14.257588800 _15_ AGT  --- 83 cbr 520 [13a f b 800] ------- [7:1 15:0 31 15] [4] 2 0
r 14.257878600 _11_ MAC  --- 0 ACK 38 [0 b 0 0] 
s 14.290589535 _15_ MAC  --- 84 message 102 [0 ffffffff f 800] ------- [15:255 -1:255 32 0] 
r 14.291406335 _11_ MAC  --- 84 message 44 [0 ffffffff f 800] ------- [15:255 -1:255 32 0] 