n -t 0 -s 0 -S DLABEL -l "Sink" -L ""
n -t * -s 0  -x 60 -y 60 -Z 0 -z 3  -v circle -c green
n -t * -s 1  -x 53.908374278763482 -y 38.046503177865638 -Z 0 -z 3  -v circle -c green
n -t * -s 2  -x 87.578910387856382 -y 18.746888702151779 -Z 0 -z 3  -v circle -c green
n -t * -s 3  -x 78.958417064956592 -y 94.115610725300201 -Z 0 -z 3  -v circle -c green
n -t * -s 4  -x 81.069460120550104 -y 54.41624608562153 -Z 0 -z 3  -v circle -c green
n -t * -s 5  -x 53.847961041074228 -y 102.68121733455044 -Z 0 -z 3  -v circle -c green
n -t * -s 6  -x 43.219741789260759 -y 34.200252105575174 -Z 0 -z 3  -v circle -c green
n -t * -s 7  -x 3.637138401920506 -y 49.385121077944113 -Z 0 -z 3  -v circle -c green
n -t * -s 8  -x 95.729957006745963 -y 93.387412379210545 -Z 0 -z 3  -v circle -c green
n -t * -s 9  -x 82.239857391565963 -y 45.283180049286777 -Z 0 -z 3  -v circle -c green
n -t * -s 10  -x 34.407088362801396 -y 119.9341136030546 -Z 0 -z 3  -v circle -c green
n -t * -s 11  -x 92.647326538640698 -y 3.6171349341129582 -Z 0 -z 3  -v circle -c green
n -t * -s 12  -x 73.186837636487013 -y 51.180156437298351 -Z 0 -z 3  -v circle -c green
n -t * -s 13  -x 24.889241673466394 -y 113.48480594972372 -Z 0 -z 3  -v circle -c green
n -t * -s 14  -x 59.133597006617855 -y 18.364890226332886 -Z 0 -z 3  -v circle -c green
n -t * -s 15  -x 18.710033976803548 -y 59.541048137257363 -Z 0 -z 3  -v circle -c green
n -t * -s 16  -x 26.396042884511893 -y 118.29275999138727 -Z 0 -z 3  -v circle -c green
n -t * -s 17  -x 106.41717524566556 -y 73.464353901084678 -Z 0 -z 3  -v circle -c green
n -t * -s 18  -x 35.396015530170878 -y 60.833015581980817 -Z 0 -z 3  -v circle -c green
n -t * -s 19  -x 20.492886351650991 -y 23.940912198247812 -Z 0 -z 3  -v circle -c green
n -t * -s 20  -x 14.911315950989405 -y 54.4871882789243 -Z 0 -z 3  -v circle -c green
n -t * -s 21  -x 46.173403880639654 -y 116.39902191068931 -Z 0 -z 3  -v circle -c green
n -t * -s 22  -x 78.361252955329249 -y 17.578420218815289 -Z 0 -z 3  -v circle -c green
n -t * -s 23  -x 0.50861762860259863 -y 28.336483923875022 -Z 0 -z 3  -v circle -c green
n -t * -s 24  -x 91.285308567474274 -y 32.181093540126966 -Z 0 -z 3  -v circle -c green
V -t * -v 1.0a5 -a 0
W -t * -x 120 -y 120
A -t * -n 1 -p 0 -o 0x7fffffff -c 30 -a 1
A -t * -h 1 -m 1073741823 -s 0
+ -t 0.064143421 -s 6 -d -1 -p message -e 32 -c 2 -a 0 -i 0 -k RTR 
- -t 0.064143421 -s 6 -d -1 -p message -e 32 -c 2 -a 0 -i 0 -k RTR
h -t 0.064143421 -s 6 -d -1 -p message -e 32 -c 2 -a 0 -i 0 -k RTR
r -t 0.067553459 -s 1 -d -1 -p message -e 32 -c 2 -a 0 -i 0 -k RTR
+ -t 0.106127935 -s 18 -d -1 -p message -e 32 -c 2 -a 0 -i 1 -k RTR 
- -t 0.106127935 -s 18 -d -1 -p message -e 32 -c 2 -a 0 -i 1 -k RTR
h -t 0.106127935 -s 18 -d -1 -p message -e 32 -c 2 -a 0 -i 1 -k RTR
r -t 0.108577990 -s 15 -d -1 -p message -e 32 -c 2 -a 0 -i 1 -k RTR
+ -t 0.179960877 -s 23 -d -1 -p message -e 32 -c 2 -a 0 -i 2 -k RTR 
- -t 0.179960877 -s 23 -d -1 -p message -e 32 -c 2 -a 0 -i 2 -k RTR
h -t 0.179960877 -s 23 -d -1 -p message -e 32 -c 2 -a 0 -i 2 -k RTR
+ -t 0.190551583 -s 16 -d -1 -p message -e 32 -c 2 -a 0 -i 3 -k RTR 
- -t 0.190551583 -s 16 -d -1 -p message -e 32 -c 2 -a 0 -i 3 -k RTR
h -t 0.190551583 -s 16 -d -1 -p message -e 32 -c 2 -a 0 -i 3 -k RTR
r -t 0.195241600 -s 13 -d -1 -p message -e 32 -c 2 -a 0 -i 3 -k RTR
r -t 0.195241610 -s 10 -d -1 -p message -e 32 -c 2 -a 0 -i 3 -k RTR
r -t 0.195241649 -s 21 -d -1 -p message -e 32 -c 2 -a 0 -i 3 -k RTR
+ -t 0.361519475 -s 14 -d -1 -p message -e 32 -c 2 -a 0 -i 4 -k RTR 
- -t 0.361519475 -s 14 -d -1 -p message -e 32 -c 2 -a 0 -i 4 -k RTR
h -t 0.361519475 -s 14 -d -1 -p message -e 32 -c 2 -a 0 -i 4 -k RTR
r -t 0.365889539 -s 22 -d -1 -p message -e 32 -c 2 -a 0 -i 4 -k RTR
+ -t 0.372430252 -s 8 -d -1 -p message -e 32 -c 2 -a 0 -i 5 -k RTR 
- -t 0.372430252 -s 8 -d -1 -p message -e 32 -c 2 -a 0 -i 5 -k RTR
h -t 0.372430252 -s 8 -d -1 -p message -e 32 -c 2 -a 0 -i 5 -k RTR
r -t 0.375520308 -s 3 -d -1 -p message -e 32 -c 2 -a 0 -i 5 -k RTR
+ -t 0.420424955 -s 12 -d -1 -p message -e 32 -c 2 -a 0 -i 6 -k RTR 
- -t 0.420424955 -s 12 -d -1 -p message -e 32 -c 2 -a 0 -i 6 -k RTR
h -t 0.420424955 -s 12 -d -1 -p message -e 32 -c 2 -a 0 -i 6 -k RTR
r -t 0.424794983 -s 4 -d -1 -p message -e 32 -c 2 -a 0 -i 6 -k RTR
r -t 0.424794991 -s 9 -d -1 -p message -e 32 -c 2 -a 0 -i 6 -k RTR
r -t 0.424795008 -s 0 -d -1 -p message -e 32 -c 2 -a 0 -i 6 -k RTR
+ -t 0.527300768 -s 3 -d -1 -p message -e 32 -c 2 -a 0 -i 7 -k RTR 
- -t 0.527300768 -s 3 -d -1 -p message -e 32 -c 2 -a 0 -i 7 -k RTR
h -t 0.527300768 -s 3 -d -1 -p message -e 32 -c 2 -a 0 -i 7 -k RTR
r -t 0.531670824 -s 8 -d -1 -p message -e 32 -c 2 -a 0 -i 7 -k RTR
+ -t 0.657851347 -s 7 -d -1 -p message -e 32 -c 2 -a 0 -i 8 -k RTR 
- -t 0.657851347 -s 7 -d -1 -p message -e 32 -c 2 -a 0 -i 8 -k RTR
h -t 0.657851347 -s 7 -d -1 -p message -e 32 -c 2 -a 0 -i 8 -k RTR
r -t 0.662541388 -s 20 -d -1 -p message -e 32 -c 2 -a 0 -i 8 -k RTR
r -t 0.662541407 -s 15 -d -1 -p message -e 32 -c 2 -a 0 -i 8 -k RTR
+ -t 0.850498420 -s 22 -d -1 -p message -e 32 -c 2 -a 0 -i 9 -k RTR 
- -t 0.850498420 -s 22 -d -1 -p message -e 32 -c 2 -a 0 -i 9 -k RTR
h -t 0.850498420 -s 22 -d -1 -p message -e 32 -c 2 -a 0 -i 9 -k RTR
r -t 0.854868451 -s 2 -d -1 -p message -e 32 -c 2 -a 0 -i 9 -k RTR
r -t 0.854868484 -s 14 -d -1 -p message -e 32 -c 2 -a 0 -i 9 -k RTR
r -t 0.854868485 -s 24 -d -1 -p message -e 32 -c 2 -a 0 -i 9 -k RTR
r -t 0.854868487 -s 11 -d -1 -p message -e 32 -c 2 -a 0 -i 9 -k RTR
+ -t 0.858926911 -s 5 -d -1 -p message -e 32 -c 2 -a 0 -i 10 -k RTR 
- -t 0.858926911 -s 5 -d -1 -p message -e 32 -c 2 -a 0 -i 10 -k RTR
h -t 0.858926911 -s 5 -d -1 -p message -e 32 -c 2 -a 0 -i 10 -k RTR
r -t 0.862976964 -s 21 -d -1 -p message -e 32 -c 2 -a 0 -i 10 -k RTR
+ -t 0.988650876 -s 17 -d -1 -p message -e 32 -c 2 -a 0 -i 11 -k RTR 
- -t 0.988650876 -s 17 -d -1 -p message -e 32 -c 2 -a 0 -i 11 -k RTR
h -t 0.988650876 -s 17 -d -1 -p message -e 32 -c 2 -a 0 -i 11 -k RTR
+ -t 1.065957076 -s 20 -d -1 -p message -e 32 -c 2 -a 0 -i 12 -k RTR 
- -t 1.065957076 -s 20 -d -1 -p message -e 32 -c 2 -a 0 -i 12 -k RTR
h -t 1.065957076 -s 20 -d -1 -p message -e 32 -c 2 -a 0 -i 12 -k RTR
r -t 1.068407097 -s 15 -d -1 -p message -e 32 -c 2 -a 0 -i 12 -k RTR
r -t 1.068407117 -s 7 -d -1 -p message -e 32 -c 2 -a 0 -i 12 -k RTR
+ -t 1.092956054 -s 1 -d -1 -p message -e 32 -c 2 -a 0 -i 13 -k RTR 
- -t 1.092956054 -s 1 -d -1 -p message -e 32 -c 2 -a 0 -i 13 -k RTR
h -t 1.092956054 -s 1 -d -1 -p message -e 32 -c 2 -a 0 -i 13 -k RTR
r -t 1.096686092 -s 6 -d -1 -p message -e 32 -c 2 -a 0 -i 13 -k RTR
+ -t 1.111820867 -s 4 -d -1 -p message -e 32 -c 2 -a 0 -i 14 -k RTR 
- -t 1.111820867 -s 4 -d -1 -p message -e 32 -c 2 -a 0 -i 14 -k RTR
h -t 1.111820867 -s 4 -d -1 -p message -e 32 -c 2 -a 0 -i 14 -k RTR
r -t 1.115550896 -s 12 -d -1 -p message -e 32 -c 2 -a 0 -i 14 -k RTR
r -t 1.115550898 -s 9 -d -1 -p message -e 32 -c 2 -a 0 -i 14 -k RTR
+ -t 1.393949314 -s 13 -d -1 -p message -e 32 -c 2 -a 0 -i 15 -k RTR 
- -t 1.393949314 -s 13 -d -1 -p message -e 32 -c 2 -a 0 -i 15 -k RTR
h -t 1.393949314 -s 13 -d -1 -p message -e 32 -c 2 -a 0 -i 15 -k RTR
r -t 1.396399331 -s 16 -d -1 -p message -e 32 -c 2 -a 0 -i 15 -k RTR
r -t 1.396399352 -s 10 -d -1 -p message -e 32 -c 2 -a 0 -i 15 -k RTR
+ -t 1.406314462 -s 0 -d -1 -p message -e 32 -c 2 -a 0 -i 16 -k RTR 
- -t 1.406314462 -s 0 -d -1 -p message -e 32 -c 2 -a 0 -i 16 -k RTR
h -t 1.406314462 -s 0 -d -1 -p message -e 32 -c 2 -a 0 -i 16 -k RTR
r -t 1.410364514 -s 12 -d -1 -p message -e 32 -c 2 -a 0 -i 16 -k RTR
+ -t 1.471767389 -s 21 -d -1 -p message -e 32 -c 2 -a 0 -i 17 -k RTR 
- -t 1.471767389 -s 21 -d -1 -p message -e 32 -c 2 -a 0 -i 17 -k RTR
h -t 1.471767389 -s 21 -d -1 -p message -e 32 -c 2 -a 0 -i 17 -k RTR
r -t 1.474857430 -s 10 -d -1 -p message -e 32 -c 2 -a 0 -i 17 -k RTR
r -t 1.474857442 -s 5 -d -1 -p message -e 32 -c 2 -a 0 -i 17 -k RTR
r -t 1.474857455 -s 16 -d -1 -p message -e 32 -c 2 -a 0 -i 17 -k RTR
+ -t 1.547158322 -s 11 -d -1 -p message -e 32 -c 2 -a 0 -i 18 -k RTR 
- -t 1.547158322 -s 11 -d -1 -p message -e 32 -c 2 -a 0 -i 18 -k RTR
h -t 1.547158322 -s 11 -d -1 -p message -e 32 -c 2 -a 0 -i 18 -k RTR
r -t 1.551208376 -s 2 -d -1 -p message -e 32 -c 2 -a 0 -i 18 -k RTR
r -t 1.551208389 -s 22 -d -1 -p message -e 32 -c 2 -a 0 -i 18 -k RTR
+ -t 1.575759217 -s 9 -d -1 -p message -e 32 -c 2 -a 0 -i 19 -k RTR 
- -t 1.575759217 -s 9 -d -1 -p message -e 32 -c 2 -a 0 -i 19 -k RTR
h -t 1.575759217 -s 9 -d -1 -p message -e 32 -c 2 -a 0 -i 19 -k RTR
r -t 1.578849248 -s 4 -d -1 -p message -e 32 -c 2 -a 0 -i 19 -k RTR
r -t 1.578849253 -s 12 -d -1 -p message -e 32 -c 2 -a 0 -i 19 -k RTR
r -t 1.578849271 -s 24 -d -1 -p message -e 32 -c 2 -a 0 -i 19 -k RTR
+ -t 1.637102722 -s 24 -d -1 -p message -e 32 -c 2 -a 0 -i 20 -k RTR 
- -t 1.637102722 -s 24 -d -1 -p message -e 32 -c 2 -a 0 -i 20 -k RTR
h -t 1.637102722 -s 24 -d -1 -p message -e 32 -c 2 -a 0 -i 20 -k RTR
r -t 1.641152768 -s 2 -d -1 -p message -e 32 -c 2 -a 0 -i 20 -k RTR
r -t 1.641152775 -s 9 -d -1 -p message -e 32 -c 2 -a 0 -i 20 -k RTR
r -t 1.641152787 -s 22 -d -1 -p message -e 32 -c 2 -a 0 -i 20 -k RTR
+ -t 1.738151342 -s 19 -d -1 -p message -e 32 -c 2 -a 0 -i 21 -k RTR 
- -t 1.738151342 -s 19 -d -1 -p message -e 32 -c 2 -a 0 -i 21 -k RTR
h -t 1.738151342 -s 19 -d -1 -p message -e 32 -c 2 -a 0 -i 21 -k RTR
+ -t 1.755601116 -s 2 -d -1 -p message -e 32 -c 2 -a 0 -i 22 -k RTR 
- -t 1.755601116 -s 2 -d -1 -p message -e 32 -c 2 -a 0 -i 22 -k RTR
h -t 1.755601116 -s 2 -d -1 -p message -e 32 -c 2 -a 0 -i 22 -k RTR
r -t 1.759331147 -s 22 -d -1 -p message -e 32 -c 2 -a 0 -i 22 -k RTR
r -t 1.759331162 -s 24 -d -1 -p message -e 32 -c 2 -a 0 -i 22 -k RTR
r -t 1.759331169 -s 11 -d -1 -p message -e 32 -c 2 -a 0 -i 22 -k RTR
+ -t 1.898232116 -s 10 -d -1 -p message -e 32 -c 2 -a 0 -i 23 -k RTR 
- -t 1.898232116 -s 10 -d -1 -p message -e 32 -c 2 -a 0 -i 23 -k RTR
h -t 1.898232116 -s 10 -d -1 -p message -e 32 -c 2 -a 0 -i 23 -k RTR
r -t 1.902282143 -s 16 -d -1 -p message -e 32 -c 2 -a 0 -i 23 -k RTR
r -t 1.902282154 -s 13 -d -1 -p message -e 32 -c 2 -a 0 -i 23 -k RTR
r -t 1.902282157 -s 21 -d -1 -p message -e 32 -c 2 -a 0 -i 23 -k RTR
+ -t 1.961070471 -s 15 -d -1 -p message -e 32 -c 2 -a 0 -i 24 -k RTR 
- -t 1.961070471 -s 15 -d -1 -p message -e 32 -c 2 -a 0 -i 24 -k RTR
h -t 1.961070471 -s 15 -d -1 -p message -e 32 -c 2 -a 0 -i 24 -k RTR
r -t 1.965440492 -s 20 -d -1 -p message -e 32 -c 2 -a 0 -i 24 -k RTR
r -t 1.965440527 -s 18 -d -1 -p message -e 32 -c 2 -a 0 -i 24 -k RTR
r -t 1.965440532 -s 7 -d -1 -p message -e 32 -c 2 -a 0 -i 24 -k RTR
+ -t 5.000000000 -s 5 -d -1 -p cbr -e 50 -c 2 -a 0 -i 25 -k AGT 
- -t 5.000000000 -s 5 -d -1 -p cbr -e 50 -c 2 -a 0 -i 25 -k AGT
h -t 5.000000000 -s 5 -d -1 -p cbr -e 50 -c 2 -a 0 -i 25 -k AGT
+ -t 7.000000000 -s 5 -d -1 -p cbr -e 50 -c 2 -a 0 -i 26 -k AGT 
- -t 7.000000000 -s 5 -d -1 -p cbr -e 50 -c 2 -a 0 -i 26 -k AGT
h -t 7.000000000 -s 5 -d -1 -p cbr -e 50 -c 2 -a 0 -i 26 -k AGT
+ -t 9.000000000 -s 5 -d -1 -p cbr -e 50 -c 2 -a 0 -i 27 -k AGT 
- -t 9.000000000 -s 5 -d -1 -p cbr -e 50 -c 2 -a 0 -i 27 -k AGT
h -t 9.000000000 -s 5 -d -1 -p cbr -e 50 -c 2 -a 0 -i 27 -k AGT
+ -t 11.000000000 -s 5 -d -1 -p cbr -e 50 -c 2 -a 0 -i 28 -k AGT 
- -t 11.000000000 -s 5 -d -1 -p cbr -e 50 -c 2 -a 0 -i 28 -k AGT
h -t 11.000000000 -s 5 -d -1 -p cbr -e 50 -c 2 -a 0 -i 28 -k AGT
+ -t 11.940692914 -s 8 -d -1 -p message -e 32 -c 2 -a 0 -i 29 -k RTR 
- -t 11.940692914 -s 8 -d -1 -p message -e 32 -c 2 -a 0 -i 29 -k RTR
h -t 11.940692914 -s 8 -d -1 -p message -e 32 -c 2 -a 0 -i 29 -k RTR
r -t 11.943462970 -s 3 -d -1 -p message -e 32 -c 2 -a 0 -i 29 -k RTR
+ -t 12.077271765 -s 1 -d -1 -p message -e 32 -c 2 -a 0 -i 30 -k RTR 
- -t 12.077271765 -s 1 -d -1 -p message -e 32 -c 2 -a 0 -i 30 -k RTR
h -t 12.077271765 -s 1 -d -1 -p message -e 32 -c 2 -a 0 -i 30 -k RTR
r -t 12.081001803 -s 6 -d -1 -p message -e 32 -c 2 -a 0 -i 30 -k RTR
+ -t 12.117387786 -s 15 -d -1 -p message -e 32 -c 2 -a 0 -i 31 -k RTR 
- -t 12.117387786 -s 15 -d -1 -p message -e 32 -c 2 -a 0 -i 31 -k RTR
h -t 12.117387786 -s 15 -d -1 -p message -e 32 -c 2 -a 0 -i 31 -k RTR
r -t 12.120797807 -s 20 -d -1 -p message -e 32 -c 2 -a 0 -i 31 -k RTR
r -t 12.120797842 -s 18 -d -1 -p message -e 32 -c 2 -a 0 -i 31 -k RTR
r -t 12.120797847 -s 7 -d -1 -p message -e 32 -c 2 -a 0 -i 31 -k RTR
+ -t 12.197870208 -s 13 -d -1 -p message -e 32 -c 2 -a 0 -i 32 -k RTR 
- -t 12.197870208 -s 13 -d -1 -p message -e 32 -c 2 -a 0 -i 32 -k RTR
h -t 12.197870208 -s 13 -d -1 -p message -e 32 -c 2 -a 0 -i 32 -k RTR
+ -t 12.200036772 -s 10 -d -1 -p message -e 32 -c 2 -a 0 -i 33 -k RTR 
- -t 12.200036772 -s 10 -d -1 -p message -e 32 -c 2 -a 0 -i 33 -k RTR
h -t 12.200036772 -s 10 -d -1 -p message -e 32 -c 2 -a 0 -i 33 -k RTR
r -t 12.200320225 -s 16 -d -1 -p message -e 32 -c 2 -a 0 -i 32 -k RTR
r -t 12.200320247 -s 10 -d -1 -p message -e 32 -c 2 -a 0 -i 32 -k RTR
+ -t 12.202738581 -s 21 -d -1 -p message -e 32 -c 2 -a 0 -i 34 -k RTR 
- -t 12.202738581 -s 21 -d -1 -p message -e 32 -c 2 -a 0 -i 34 -k RTR
h -t 12.202738581 -s 21 -d -1 -p message -e 32 -c 2 -a 0 -i 34 -k RTR
r -t 12.202806799 -s 16 -d -1 -p message -e 32 -c 2 -a 0 -i 33 -k RTR
r -t 12.202806810 -s 13 -d -1 -p message -e 32 -c 2 -a 0 -i 33 -k RTR
r -t 12.202806813 -s 21 -d -1 -p message -e 32 -c 2 -a 0 -i 33 -k RTR
r -t 12.207108622 -s 10 -d -1 -p message -e 32 -c 2 -a 0 -i 34 -k RTR
r -t 12.207108633 -s 5 -d -1 -p message -e 32 -c 2 -a 0 -i 34 -k RTR
r -t 12.207108647 -s 16 -d -1 -p message -e 32 -c 2 -a 0 -i 34 -k RTR
+ -t 12.367508098 -s 22 -d -1 -p message -e 32 -c 2 -a 0 -i 35 -k RTR 
- -t 12.367508098 -s 22 -d -1 -p message -e 32 -c 2 -a 0 -i 35 -k RTR
h -t 12.367508098 -s 22 -d -1 -p message -e 32 -c 2 -a 0 -i 35 -k RTR
r -t 12.371238129 -s 2 -d -1 -p message -e 32 -c 2 -a 0 -i 35 -k RTR
r -t 12.371238162 -s 14 -d -1 -p message -e 32 -c 2 -a 0 -i 35 -k RTR
r -t 12.371238163 -s 24 -d -1 -p message -e 32 -c 2 -a 0 -i 35 -k RTR
r -t 12.371238165 -s 11 -d -1 -p message -e 32 -c 2 -a 0 -i 35 -k RTR
+ -t 12.428581356 -s 4 -d -1 -p message -e 32 -c 2 -a 0 -i 37 -k RTR 
- -t 12.428581356 -s 4 -d -1 -p message -e 32 -c 2 -a 0 -i 37 -k RTR
h -t 12.428581356 -s 4 -d -1 -p message -e 32 -c 2 -a 0 -i 37 -k RTR
+ -t 12.430912273 -s 9 -d -1 -p message -e 32 -c 2 -a 0 -i 38 -k RTR 
- -t 12.430912273 -s 9 -d -1 -p message -e 32 -c 2 -a 0 -i 38 -k RTR
h -t 12.430912273 -s 9 -d -1 -p message -e 32 -c 2 -a 0 -i 38 -k RTR
+ -t 12.431349425 -s 0 -d -1 -p message -e 32 -c 2 -a 0 -i 39 -k RTR 
- -t 12.431349425 -s 0 -d -1 -p message -e 32 -c 2 -a 0 -i 39 -k RTR
h -t 12.431349425 -s 0 -d -1 -p message -e 32 -c 2 -a 0 -i 39 -k RTR
r -t 12.431991385 -s 12 -d -1 -p message -e 32 -c 2 -a 0 -i 37 -k RTR
r -t 12.431991387 -s 9 -d -1 -p message -e 32 -c 2 -a 0 -i 37 -k RTR
r -t 12.434642303 -s 4 -d -1 -p message -e 32 -c 2 -a 0 -i 38 -k RTR
r -t 12.434642326 -s 24 -d -1 -p message -e 32 -c 2 -a 0 -i 38 -k RTR
+ -t 12.664470430 -s 20 -d -1 -p message -e 32 -c 2 -a 0 -i 40 -k RTR 
- -t 12.664470430 -s 20 -d -1 -p message -e 32 -c 2 -a 0 -i 40 -k RTR
h -t 12.664470430 -s 20 -d -1 -p message -e 32 -c 2 -a 0 -i 40 -k RTR
r -t 12.668520451 -s 15 -d -1 -p message -e 32 -c 2 -a 0 -i 40 -k RTR
r -t 12.668520471 -s 7 -d -1 -p message -e 32 -c 2 -a 0 -i 40 -k RTR
+ -t 12.735285371 -s 22 -d -1 -p message -e 44 -c 2 -a 0 -i 41 -k RTR 
- -t 12.735285371 -s 22 -d -1 -p message -e 44 -c 2 -a 0 -i 41 -k RTR
h -t 12.735285371 -s 22 -d -1 -p message -e 44 -c 2 -a 0 -i 41 -k RTR
r -t 12.739399402 -s 2 -d -1 -p message -e 44 -c 2 -a 0 -i 41 -k RTR
r -t 12.739399435 -s 14 -d -1 -p message -e 44 -c 2 -a 0 -i 41 -k RTR
r -t 12.739399436 -s 24 -d -1 -p message -e 44 -c 2 -a 0 -i 41 -k RTR
r -t 12.739399438 -s 11 -d -1 -p message -e 44 -c 2 -a 0 -i 41 -k RTR
+ -t 12.790149477 -s 1 -d -1 -p message -e 44 -c 2 -a 0 -i 42 -k RTR 
- -t 12.790149477 -s 1 -d -1 -p message -e 44 -c 2 -a 0 -i 42 -k RTR
h -t 12.790149477 -s 1 -d -1 -p message -e 44 -c 2 -a 0 -i 42 -k RTR
r -t 12.792983515 -s 6 -d -1 -p message -e 44 -c 2 -a 0 -i 42 -k RTR
+ -t 12.926895427 -s 3 -d -1 -p message -e 32 -c 2 -a 0 -i 47 -k RTR 
- -t 12.926895427 -s 3 -d -1 -p message -e 32 -c 2 -a 0 -i 47 -k RTR
h -t 12.926895427 -s 3 -d -1 -p message -e 32 -c 2 -a 0 -i 47 -k RTR
r -t 12.931585483 -s 8 -d -1 -p message -e 32 -c 2 -a 0 -i 47 -k RTR
+ -t 13.000000000 -s 5 -d -1 -p cbr -e 50 -c 2 -a 0 -i 49 -k AGT 
- -t 13.000000000 -s 5 -d -1 -p cbr -e 50 -c 2 -a 0 -i 49 -k AGT
h -t 13.000000000 -s 5 -d -1 -p cbr -e 50 -c 2 -a 0 -i 49 -k AGT
+ -t 13.072710730 -s 7 -d -1 -p message -e 32 -c 2 -a 0 -i 50 -k RTR 
- -t 13.072710730 -s 7 -d -1 -p message -e 32 -c 2 -a 0 -i 50 -k RTR
h -t 13.072710730 -s 7 -d -1 -p message -e 32 -c 2 -a 0 -i 50 -k RTR
r -t 13.075160771 -s 20 -d -1 -p message -e 32 -c 2 -a 0 -i 50 -k RTR
r -t 13.075160791 -s 15 -d -1 -p message -e 32 -c 2 -a 0 -i 50 -k RTR
+ -t 13.102845706 -s 24 -d -1 -p message -e 32 -c 2 -a 0 -i 52 -k RTR 
- -t 13.102845706 -s 24 -d -1 -p message -e 32 -c 2 -a 0 -i 52 -k RTR
h -t 13.102845706 -s 24 -d -1 -p message -e 32 -c 2 -a 0 -i 52 -k RTR
r -t 13.105615753 -s 2 -d -1 -p message -e 32 -c 2 -a 0 -i 52 -k RTR
r -t 13.105615759 -s 9 -d -1 -p message -e 32 -c 2 -a 0 -i 52 -k RTR
r -t 13.105615771 -s 22 -d -1 -p message -e 32 -c 2 -a 0 -i 52 -k RTR
+ -t 13.114380313 -s 15 -d -1 -p message -e 56 -c 2 -a 0 -i 53 -k RTR 
- -t 13.114380313 -s 15 -d -1 -p message -e 56 -c 2 -a 0 -i 53 -k RTR
h -t 13.114380313 -s 15 -d -1 -p message -e 56 -c 2 -a 0 -i 53 -k RTR
r -t 13.119518334 -s 20 -d -1 -p message -e 56 -c 2 -a 0 -i 53 -k RTR
r -t 13.119518368 -s 18 -d -1 -p message -e 56 -c 2 -a 0 -i 53 -k RTR
r -t 13.119518373 -s 7 -d -1 -p message -e 56 -c 2 -a 0 -i 53 -k RTR
+ -t 13.123819677 -s 12 -d -1 -p message -e 32 -c 2 -a 0 -i 54 -k RTR 
- -t 13.123819677 -s 12 -d -1 -p message -e 32 -c 2 -a 0 -i 54 -k RTR
h -t 13.123819677 -s 12 -d -1 -p message -e 32 -c 2 -a 0 -i 54 -k RTR
r -t 13.128509705 -s 4 -d -1 -p message -e 32 -c 2 -a 0 -i 54 -k RTR
r -t 13.128509713 -s 9 -d -1 -p message -e 32 -c 2 -a 0 -i 54 -k RTR
r -t 13.128509730 -s 0 -d -1 -p message -e 32 -c 2 -a 0 -i 54 -k RTR
+ -t 13.203815376 -s 21 -d -1 -p message -e 44 -c 2 -a 0 -i 55 -k RTR 
- -t 13.203815376 -s 21 -d -1 -p message -e 44 -c 2 -a 0 -i 55 -k RTR
h -t 13.203815376 -s 21 -d -1 -p message -e 44 -c 2 -a 0 -i 55 -k RTR
r -t 13.206969417 -s 10 -d -1 -p message -e 44 -c 2 -a 0 -i 55 -k RTR
r -t 13.206969429 -s 5 -d -1 -p message -e 44 -c 2 -a 0 -i 55 -k RTR
r -t 13.206969442 -s 16 -d -1 -p message -e 44 -c 2 -a 0 -i 55 -k RTR
+ -t 13.397160074 -s 10 -d -1 -p message -e 44 -c 2 -a 0 -i 57 -k RTR 
- -t 13.397160074 -s 10 -d -1 -p message -e 44 -c 2 -a 0 -i 57 -k RTR
h -t 13.397160074 -s 10 -d -1 -p message -e 44 -c 2 -a 0 -i 57 -k RTR
r -t 13.401914101 -s 16 -d -1 -p message -e 44 -c 2 -a 0 -i 57 -k RTR
r -t 13.401914112 -s 13 -d -1 -p message -e 44 -c 2 -a 0 -i 57 -k RTR
r -t 13.401914115 -s 21 -d -1 -p message -e 44 -c 2 -a 0 -i 57 -k RTR
+ -t 13.404335637 -s 16 -d -1 -p message -e 32 -c 2 -a 0 -i 56 -k RTR 
- -t 13.404335637 -s 16 -d -1 -p message -e 32 -c 2 -a 0 -i 56 -k RTR
h -t 13.404335637 -s 16 -d -1 -p message -e 32 -c 2 -a 0 -i 56 -k RTR
r -t 13.407105654 -s 13 -d -1 -p message -e 32 -c 2 -a 0 -i 56 -k RTR
r -t 13.407105664 -s 10 -d -1 -p message -e 32 -c 2 -a 0 -i 56 -k RTR
r -t 13.407105703 -s 21 -d -1 -p message -e 32 -c 2 -a 0 -i 56 -k RTR
+ -t 13.429567458 -s 9 -d -1 -p message -e 44 -c 2 -a 0 -i 58 -k RTR 
- -t 13.429567458 -s 9 -d -1 -p message -e 44 -c 2 -a 0 -i 58 -k RTR
h -t 13.429567458 -s 9 -d -1 -p message -e 44 -c 2 -a 0 -i 58 -k RTR
r -t 13.433681489 -s 4 -d -1 -p message -e 44 -c 2 -a 0 -i 58 -k RTR
r -t 13.433681494 -s 12 -d -1 -p message -e 44 -c 2 -a 0 -i 58 -k RTR
r -t 13.433681511 -s 24 -d -1 -p message -e 44 -c 2 -a 0 -i 58 -k RTR
+ -t 13.477554997 -s 5 -d -1 -p message -e 32 -c 2 -a 0 -i 59 -k RTR 
- -t 13.477554997 -s 5 -d -1 -p message -e 32 -c 2 -a 0 -i 59 -k RTR
h -t 13.477554997 -s 5 -d -1 -p message -e 32 -c 2 -a 0 -i 59 -k RTR
r -t 13.482245049 -s 21 -d -1 -p message -e 32 -c 2 -a 0 -i 59 -k RTR
+ -t 13.527474134 -s 23 -d -1 -p message -e 32 -c 2 -a 0 -i 60 -k RTR 
- -t 13.527474134 -s 23 -d -1 -p message -e 32 -c 2 -a 0 -i 60 -k RTR
h -t 13.527474134 -s 23 -d -1 -p message -e 32 -c 2 -a 0 -i 60 -k RTR
+ -t 13.554287862 -s 2 -d -1 -p message -e 32 -c 2 -a 0 -i 61 -k RTR 
- -t 13.554287862 -s 2 -d -1 -p message -e 32 -c 2 -a 0 -i 61 -k RTR
h -t 13.554287862 -s 2 -d -1 -p message -e 32 -c 2 -a 0 -i 61 -k RTR
r -t 13.556737893 -s 22 -d -1 -p message -e 32 -c 2 -a 0 -i 61 -k RTR
r -t 13.556737908 -s 24 -d -1 -p message -e 32 -c 2 -a 0 -i 61 -k RTR
r -t 13.556737915 -s 11 -d -1 -p message -e 32 -c 2 -a 0 -i 61 -k RTR
+ -t 13.585748321 -s 4 -d -1 -p message -e 44 -c 2 -a 0 -i 62 -k RTR 
- -t 13.585748321 -s 4 -d -1 -p message -e 44 -c 2 -a 0 -i 62 -k RTR
h -t 13.585748321 -s 4 -d -1 -p message -e 44 -c 2 -a 0 -i 62 -k RTR
r -t 13.589542349 -s 12 -d -1 -p message -e 44 -c 2 -a 0 -i 62 -k RTR
r -t 13.589542351 -s 9 -d -1 -p message -e 44 -c 2 -a 0 -i 62 -k RTR
+ -t 13.608151174 -s 21 -d -1 -p message -e 56 -c 2 -a 0 -i 63 -k RTR 
- -t 13.608151174 -s 21 -d -1 -p message -e 56 -c 2 -a 0 -i 63 -k RTR
h -t 13.608151174 -s 21 -d -1 -p message -e 56 -c 2 -a 0 -i 63 -k RTR
r -t 13.612969215 -s 10 -d -1 -p message -e 56 -c 2 -a 0 -i 63 -k RTR
r -t 13.612969227 -s 5 -d -1 -p message -e 56 -c 2 -a 0 -i 63 -k RTR
r -t 13.612969241 -s 16 -d -1 -p message -e 56 -c 2 -a 0 -i 63 -k RTR
+ -t 13.660192621 -s 14 -d -1 -p message -e 32 -c 2 -a 0 -i 64 -k RTR 
- -t 13.660192621 -s 14 -d -1 -p message -e 32 -c 2 -a 0 -i 64 -k RTR
h -t 13.660192621 -s 14 -d -1 -p message -e 32 -c 2 -a 0 -i 64 -k RTR
r -t 13.663922685 -s 22 -d -1 -p message -e 32 -c 2 -a 0 -i 64 -k RTR
+ -t 13.738837702 -s 22 -d -1 -p message -e 32 -c 2 -a 0 -i 65 -k RTR 
- -t 13.738837702 -s 22 -d -1 -p message -e 32 -c 2 -a 0 -i 65 -k RTR
h -t 13.738837702 -s 22 -d -1 -p message -e 32 -c 2 -a 0 -i 65 -k RTR
r -t 13.741927733 -s 2 -d -1 -p message -e 32 -c 2 -a 0 -i 65 -k RTR
r -t 13.741927766 -s 14 -d -1 -p message -e 32 -c 2 -a 0 -i 65 -k RTR
r -t 13.741927767 -s 24 -d -1 -p message -e 32 -c 2 -a 0 -i 65 -k RTR
r -t 13.741927768 -s 11 -d -1 -p message -e 32 -c 2 -a 0 -i 65 -k RTR
+ -t 13.765756269 -s 11 -d -1 -p message -e 32 -c 2 -a 0 -i 66 -k RTR 
- -t 13.765756269 -s 11 -d -1 -p message -e 32 -c 2 -a 0 -i 66 -k RTR
h -t 13.765756269 -s 11 -d -1 -p message -e 32 -c 2 -a 0 -i 66 -k RTR
r -t 13.769166322 -s 2 -d -1 -p message -e 32 -c 2 -a 0 -i 66 -k RTR
r -t 13.769166335 -s 22 -d -1 -p message -e 32 -c 2 -a 0 -i 66 -k RTR
+ -t 13.774004594 -s 15 -d -1 -p message -e 68 -c 2 -a 0 -i 67 -k RTR 
- -t 13.774004594 -s 15 -d -1 -p message -e 68 -c 2 -a 0 -i 67 -k RTR
h -t 13.774004594 -s 15 -d -1 -p message -e 68 -c 2 -a 0 -i 67 -k RTR
r -t 13.779846615 -s 20 -d -1 -p message -e 68 -c 2 -a 0 -i 67 -k RTR
r -t 13.779846650 -s 18 -d -1 -p message -e 68 -c 2 -a 0 -i 67 -k RTR
r -t 13.779846654 -s 7 -d -1 -p message -e 68 -c 2 -a 0 -i 67 -k RTR
+ -t 13.902637492 -s 13 -d -1 -p message -e 44 -c 2 -a 0 -i 68 -k RTR 
- -t 13.902637492 -s 13 -d -1 -p message -e 44 -c 2 -a 0 -i 68 -k RTR
h -t 13.902637492 -s 13 -d -1 -p message -e 44 -c 2 -a 0 -i 68 -k RTR
r -t 13.907711509 -s 16 -d -1 -p message -e 44 -c 2 -a 0 -i 68 -k RTR
r -t 13.907711531 -s 10 -d -1 -p message -e 44 -c 2 -a 0 -i 68 -k RTR
+ -t 13.922432999 -s 16 -d -1 -p message -e 56 -c 2 -a 0 -i 69 -k RTR 
- -t 13.922432999 -s 16 -d -1 -p message -e 56 -c 2 -a 0 -i 69 -k RTR
h -t 13.922432999 -s 16 -d -1 -p message -e 56 -c 2 -a 0 -i 69 -k RTR
r -t 13.926291015 -s 13 -d -1 -p message -e 56 -c 2 -a 0 -i 69 -k RTR
r -t 13.926291026 -s 10 -d -1 -p message -e 56 -c 2 -a 0 -i 69 -k RTR
r -t 13.926291065 -s 21 -d -1 -p message -e 56 -c 2 -a 0 -i 69 -k RTR
+ -t 13.926977915 -s 17 -d -1 -p message -e 32 -c 2 -a 0 -i 70 -k RTR 
- -t 13.926977915 -s 17 -d -1 -p message -e 32 -c 2 -a 0 -i 70 -k RTR
h -t 13.926977915 -s 17 -d -1 -p message -e 32 -c 2 -a 0 -i 70 -k RTR
+ -t 13.968494383 -s 20 -d -1 -p message -e 32 -c 2 -a 0 -i 71 -k RTR 
- -t 13.968494383 -s 20 -d -1 -p message -e 32 -c 2 -a 0 -i 71 -k RTR
h -t 13.968494383 -s 20 -d -1 -p message -e 32 -c 2 -a 0 -i 71 -k RTR
+ -t 13.968782691 -s 20 -d -1 -p message -e 44 -c 2 -a 0 -i 73 -k RTR 
- -t 13.968782691 -s 20 -d -1 -p message -e 44 -c 2 -a 0 -i 73 -k RTR
h -t 13.968782691 -s 20 -d -1 -p message -e 44 -c 2 -a 0 -i 73 -k RTR
r -t 13.971584404 -s 15 -d -1 -p message -e 32 -c 2 -a 0 -i 71 -k RTR
r -t 13.971584424 -s 7 -d -1 -p message -e 32 -c 2 -a 0 -i 71 -k RTR
r -t 13.974688404 -s 15 -d -1 -p message -e 44 -c 2 -a 0 -i 73 -k RTR
r -t 13.974688424 -s 7 -d -1 -p message -e 44 -c 2 -a 0 -i 73 -k RTR
+ -t 13.977976427 -s 4 -d -1 -p message -e 56 -c 2 -a 0 -i 74 -k RTR 
- -t 13.977976427 -s 4 -d -1 -p message -e 56 -c 2 -a 0 -i 74 -k RTR
h -t 13.977976427 -s 4 -d -1 -p message -e 56 -c 2 -a 0 -i 74 -k RTR
r -t 13.982794455 -s 12 -d -1 -p message -e 56 -c 2 -a 0 -i 74 -k RTR
r -t 13.982794457 -s 9 -d -1 -p message -e 56 -c 2 -a 0 -i 74 -k RTR
+ -t 14.042282665 -s 6 -d -1 -p message -e 32 -c 2 -a 0 -i 75 -k RTR 
- -t 14.042282665 -s 6 -d -1 -p message -e 32 -c 2 -a 0 -i 75 -k RTR
h -t 14.042282665 -s 6 -d -1 -p message -e 32 -c 2 -a 0 -i 75 -k RTR
r -t 14.046012703 -s 1 -d -1 -p message -e 32 -c 2 -a 0 -i 75 -k RTR
+ -t 14.107476522 -s 24 -d -1 -p message -e 44 -c 2 -a 0 -i 77 -k RTR 
- -t 14.107476522 -s 24 -d -1 -p message -e 44 -c 2 -a 0 -i 77 -k RTR
h -t 14.107476522 -s 24 -d -1 -p message -e 44 -c 2 -a 0 -i 77 -k RTR
r -t 14.110950569 -s 2 -d -1 -p message -e 44 -c 2 -a 0 -i 77 -k RTR
r -t 14.110950575 -s 9 -d -1 -p message -e 44 -c 2 -a 0 -i 77 -k RTR
r -t 14.110950587 -s 22 -d -1 -p message -e 44 -c 2 -a 0 -i 77 -k RTR
+ -t 14.116202035 -s 12 -d -1 -p message -e 44 -c 2 -a 0 -i 79 -k RTR 
- -t 14.116202035 -s 12 -d -1 -p message -e 44 -c 2 -a 0 -i 79 -k RTR
h -t 14.116202035 -s 12 -d -1 -p message -e 44 -c 2 -a 0 -i 79 -k RTR
+ -t 14.118906757 -s 18 -d -1 -p message -e 32 -c 2 -a 0 -i 78 -k RTR 
- -t 14.118906757 -s 18 -d -1 -p message -e 32 -c 2 -a 0 -i 78 -k RTR
h -t 14.118906757 -s 18 -d -1 -p message -e 32 -c 2 -a 0 -i 78 -k RTR
r -t 14.119996063 -s 4 -d -1 -p message -e 44 -c 2 -a 0 -i 79 -k RTR
r -t 14.119996071 -s 9 -d -1 -p message -e 44 -c 2 -a 0 -i 79 -k RTR
r -t 14.119996088 -s 0 -d -1 -p message -e 44 -c 2 -a 0 -i 79 -k RTR
r -t 14.123596812 -s 15 -d -1 -p message -e 32 -c 2 -a 0 -i 78 -k RTR
+ -t 14.401129614 -s 10 -d -1 -p message -e 32 -c 2 -a 0 -i 80 -k RTR 
- -t 14.401129614 -s 10 -d -1 -p message -e 32 -c 2 -a 0 -i 80 -k RTR
h -t 14.401129614 -s 10 -d -1 -p message -e 32 -c 2 -a 0 -i 80 -k RTR
r -t 14.404219641 -s 16 -d -1 -p message -e 32 -c 2 -a 0 -i 80 -k RTR
r -t 14.404219652 -s 13 -d -1 -p message -e 32 -c 2 -a 0 -i 80 -k RTR
r -t 14.404219655 -s 21 -d -1 -p message -e 32 -c 2 -a 0 -i 80 -k RTR
+ -t 14.413991663 -s 5 -d -1 -p message -e 32 -c 2 -a 0 -i 81 -k RTR 
- -t 14.413991663 -s 5 -d -1 -p message -e 32 -c 2 -a 0 -i 81 -k RTR
h -t 14.413991663 -s 5 -d -1 -p message -e 32 -c 2 -a 0 -i 81 -k RTR
r -t 14.417081715 -s 21 -d -1 -p message -e 32 -c 2 -a 0 -i 81 -k RTR
+ -t 14.433951166 -s 9 -d -1 -p message -e 32 -c 2 -a 0 -i 82 -k RTR 
- -t 14.433951166 -s 9 -d -1 -p message -e 32 -c 2 -a 0 -i 82 -k RTR
h -t 14.433951166 -s 9 -d -1 -p message -e 32 -c 2 -a 0 -i 82 -k RTR
r -t 14.438641197 -s 4 -d -1 -p message -e 32 -c 2 -a 0 -i 82 -k RTR
r -t 14.438641202 -s 12 -d -1 -p message -e 32 -c 2 -a 0 -i 82 -k RTR
r -t 14.438641219 -s 24 -d -1 -p message -e 32 -c 2 -a 0 -i 82 -k RTR
+ -t 14.554498410 -s 2 -d -1 -p message -e 32 -c 2 -a 0 -i 83 -k RTR 
- -t 14.554498410 -s 2 -d -1 -p message -e 32 -c 2 -a 0 -i 83 -k RTR
h -t 14.554498410 -s 2 -d -1 -p message -e 32 -c 2 -a 0 -i 83 -k RTR
r -t 14.557268441 -s 22 -d -1 -p message -e 32 -c 2 -a 0 -i 83 -k RTR
r -t 14.557268456 -s 24 -d -1 -p message -e 32 -c 2 -a 0 -i 83 -k RTR
r -t 14.557268463 -s 11 -d -1 -p message -e 32 -c 2 -a 0 -i 83 -k RTR
+ -t 14.611146628 -s 21 -d -1 -p message -e 32 -c 2 -a 0 -i 84 -k RTR 
- -t 14.611146628 -s 21 -d -1 -p message -e 32 -c 2 -a 0 -i 84 -k RTR
h -t 14.611146628 -s 21 -d -1 -p message -e 32 -c 2 -a 0 -i 84 -k RTR
r -t 14.614236669 -s 10 -d -1 -p message -e 32 -c 2 -a 0 -i 84 -k RTR
r -t 14.614236681 -s 5 -d -1 -p message -e 32 -c 2 -a 0 -i 84 -k RTR
r -t 14.614236695 -s 16 -d -1 -p message -e 32 -c 2 -a 0 -i 84 -k RTR
+ -t 14.667944156 -s 2 -d -1 -p message -e 44 -c 2 -a 0 -i 85 -k RTR 
- -t 14.667944156 -s 2 -d -1 -p message -e 44 -c 2 -a 0 -i 85 -k RTR
h -t 14.667944156 -s 2 -d -1 -p message -e 44 -c 2 -a 0 -i 85 -k RTR
r -t 14.672058187 -s 22 -d -1 -p message -e 44 -c 2 -a 0 -i 85 -k RTR
r -t 14.672058202 -s 24 -d -1 -p message -e 44 -c 2 -a 0 -i 85 -k RTR
r -t 14.672058209 -s 11 -d -1 -p message -e 44 -c 2 -a 0 -i 85 -k RTR
+ -t 14.737918522 -s 22 -d -1 -p message -e 32 -c 2 -a 0 -i 86 -k RTR 
- -t 14.737918522 -s 22 -d -1 -p message -e 32 -c 2 -a 0 -i 86 -k RTR
h -t 14.737918522 -s 22 -d -1 -p message -e 32 -c 2 -a 0 -i 86 -k RTR
r -t 14.741328553 -s 2 -d -1 -p message -e 32 -c 2 -a 0 -i 86 -k RTR
r -t 14.741328586 -s 14 -d -1 -p message -e 32 -c 2 -a 0 -i 86 -k RTR
r -t 14.741328587 -s 24 -d -1 -p message -e 32 -c 2 -a 0 -i 86 -k RTR
r -t 14.741328588 -s 11 -d -1 -p message -e 32 -c 2 -a 0 -i 86 -k RTR
+ -t 14.989061203 -s 0 -d -1 -p message -e 44 -c 2 -a 0 -i 88 -k RTR 
- -t 14.989061203 -s 0 -d -1 -p message -e 44 -c 2 -a 0 -i 88 -k RTR
h -t 14.989061203 -s 0 -d -1 -p message -e 44 -c 2 -a 0 -i 88 -k RTR
r -t 14.994135256 -s 12 -d -1 -p message -e 44 -c 2 -a 0 -i 88 -k RTR
+ -t 15.000000000 -s 5 -d -1 -p cbr -e 50 -c 2 -a 0 -i 89 -k AGT 
- -t 15.000000000 -s 5 -d -1 -p cbr -e 50 -c 2 -a 0 -i 89 -k AGT
h -t 15.000000000 -s 5 -d -1 -p cbr -e 50 -c 2 -a 0 -i 89 -k AGT
d -t 15.000000000 -s 5 -d -1 -p cbr -e 70 -c 2 -a 0 -i 25 -k RTR
+ -t 15.085752963 -s 12 -d -1 -p message -e 44 -c 2 -a 0 -i 90 -k RTR 
- -t 15.085752963 -s 12 -d -1 -p message -e 44 -c 2 -a 0 -i 90 -k RTR