s 5.000000000 _10_ AGT  --- 0 cbr 50 [0 0 0 0] [energy 100.000000 ei 0.000 es 0.000 et 0.000 er 0.000] ------- [10:0 0:0 32 0] [0] 0 0
r 5.000000000 _10_ RTR  --- 0 cbr 50 [0 0 0 0] [energy 100.000000 ei 0.000 es 0.000 et 0.000 er 0.000] ------- [10:0 0:0 32 0] [0] 0 0
s 5.000000000 _10_ RTR  --- 0 AODV 48 [0 0 0 0] [energy 100.000000 ei 0.000 es 0.000 et 0.000 er 0.000] ------- [10:255 -1:255 30 0] [0x2 1 1 [0 0] [10 4]] (REQUEST)
N -t 5.002585 -n 69 -e 99.996369
N -t 5.002585 -n 92 -e 99.996369
N -t 5.002585 -n 42 -e 99.996369
N -t 5.002585 -n 34 -e 99.996369
N -t 5.002585 -n 76 -e 99.996369
N -t 5.002585 -n 66 -e 99.996369
r 5.005202039 _69_ RTR  --- 0 AODV 48 [0 ffffffff a 800] [energy 99.996369 ei 0.004 es 0.000 et 0.000 er 0.000] ------- [10:255 -1:255 30 0] [0x2 1 1 [0 0] [10 4]] (REQUEST)
r 5.005202042 _92_ RTR  --- 0 AODV 48 [0 ffffffff a 800] [energy 99.996369 ei 0.004 es 0.000 et 0.000 er 0.000] ------- [10:255 -1:255 30 0] [0x2 1 1 [0 0] [10 4]] (REQUEST)
r 5.005202048 _42_ RTR  --- 0 AODV 48 [0 ffffffff a 800] [energy 99.996369 ei 0.004 es 0.000 et 0.000 er 0.000] ------- [10:255 -1:255 30 0] [0x2 1 1 [0 0] [10 4]] (REQUEST)
r 5.005202056 _34_ RTR  --- 0 AODV 48 [0 ffffffff a 800] [energy 99.996369 ei 0.004 es 0.000 et 0.000 er 0.000] ------- [10:255 -1:255 30 0] [0x2 1 1 [0 0] [10 4]] (REQUEST)
r 5.005202059 _76_ RTR  --- 0 AODV 48 [0 ffffffff a 800] [energy 99.996369 ei 0.004 es 0.000 et 0.000 er 0.000] ------- [10:255 -1:255 30 0] [0x2 1 1 [0 0] [10 4]] (REQUEST)
r 5.005202063 _66_ RTR  --- 0 AODV 48 [0 ffffffff a 800] [energy 99.996369 ei 0.004 es 0.000 et 0.000 er 0.000] ------- [10:255 -1:255 30 0] [0x2 1 1 [0 0] [10 4]] (REQUEST)
s 5.005281406 _76_ RTR  --- 0 AODV 48 [0 ffffffff a 800] [energy 99.996369 ei 0.004 es 0.000 et 0.000 er 0.000] ------- [76:255 -1:255 29 0] [0x2 2 1 [0 0] [10 4]] (REQUEST)
N -t 5.006586 -n 87 -e 99.996366
N -t 5.006586 -n 92 -e 99.996299
N -t 5.006586 -n 53 -e 99.996366
N -t 5.006586 -n 42 -e 99.996299
N -t 5.006586 -n 69 -e 99.996299
N -t 5.006586 -n 34 -e 99.996299
N -t 5.006586 -n 95 -e 99.996366
N -t 5.006586 -n 25 -e 99.996366
N -t 5.006586 -n 10 -e 99.996296
s 5.008281542 _34_ RTR  --- 0 AODV 48 [0 ffffffff a 800] [energy 99.996299 ei 0.004 es 0.000 et 0.000 er 0.000] ------- [34:255 -1:255 29 0] [0x2 2 1 [0 0] [10 4]] (REQUEST)
r 5.009203418 _87_ RTR  --- 0 AODV 48 [0 ffffffff 4c 800] [energy 99.996366 ei 0.004 es 0.000 et 0.000 er 0.000] ------- [76:255 -1:255 29 0] [0x2 2 1 [0 0] [10 4]] (REQUEST)
r 5.009203428 _92_ RTR  --- 0 AODV 48 [0 ffffffff 4c 800] [energy 99.996299 ei 0.004 es 0.000 et 0.000 er 0.000] ------- [76:255 -1:255 29 0] [0x2 2 1 [0 0] [10 4]] (REQUEST)
r 5.009203437 _53_ RTR  --- 0 AODV 48 [0 ffffffff 4c 800] [energy 99.996366 ei 0.004 es 0.000 et 0.000 er 0.000] ------- [76:255 -1:255 29 0] [0x2 2 1 [0 0] [10 4]] (REQUEST)
r 5.009203437 _42_ RTR  --- 0 AODV 48 [0 ffffffff 4c 800] [energy 99.996299 ei 0.004 es 0.000 et 0.000 er 0.000] ------- [76:255 -1:255 29 0] [0x2 2 1 [0 0] [10 4]] (REQUEST)
r 5.009203452 _69_ RTR  --- 0 AODV 48 [0 ffffffff 4c 800] [energy 99.996299 ei 0.004 es 0.000 et 0.000 er 0.000] ------- [76:255 -1:255 29 0] [0x2 2 1 [0 0] [10 4]] (REQUEST)
r 5.009203458 _34_ RTR  --- 0 AODV 48 [0 ffffffff 4c 800] [energy 99.996299 ei 0.004 es 0.000 et 0.000 er 0.000] ------- [76:255 -1:255 29 0] [0x2 2 1 [0 0] [10 4]] (REQUEST)
r 5.009203462 _95_ RTR  --- 0 AODV 48 [0 ffffffff 4c 800] [energy 99.996366 ei 0.004 es 0.000 et 0.000 er 0.000] ------- [76:255 -1:255 29 0] [0x2 2 1 [0 0] [10 4]] (REQUEST)
r 5.009203464 _25_ RTR  --- 0 AODV 48 [0 ffffffff 4c 800] [energy 99.996366 ei 0.004 es 0.000 et 0.000 er 0.000] ------- [76:255 -1:255 29 0] [0x2 2 1 [0 0] [10 4]] (REQUEST)
r 5.009203464 _10_ RTR  --- 0 AODV 48 [0 ffffffff 4c 800] [energy 99.996296 ei 0.004 es 0.000 et 0.000 er 0.000] ------- [76:255 -1:255 29 0] [0x2 2 1 [0 0] [10 4]] (REQUEST)
s 5.009520852 _92_ RTR  --- 0 AODV 48 [0 ffffffff a 800] [energy 99.996299 ei 0.004 es 0.000 et 0.000 er 0.000] ------- [92:255 -1:255 29 0] [0x2 2 1 [0 0] [10 4]] (REQUEST)
s 5.009601619 _25_ RTR  --- 0 AODV 48 [0 ffffffff 4c 800] [energy 99.996366 ei 0.004 es 0.000 et 0.000 er 0.000] ------- [25:255 -1:255 28 0] [0x2 3 1 [0 0] [10 4]] (REQUEST)
N -t 5.009947 -n 95 -e 99.996297
N -t 5.009947 -n 16 -e 99.996364
N -t 5.009947 -n 24 -e 99.996364
N -t 5.009947 -n 53 -e 99.996297
N -t 5.009947 -n 87 -e 99.996297
N -t 5.009947 -n 76 -e 99.996226
s 5.010076477 _42_ RTR  --- 0 AODV 48 [0 ffffffff a 800] [energy 99.996299 ei 0.004 es 0.000 et 0.000 er 0.000] ------- [42:255 -1:255 29 0] [0x2 2 1 [0 0] [10 4]] (REQUEST)
N -t 5.010547 -n 69 -e 99.996229
N -t 5.010547 -n 73 -e 99.996364
N -t 5.010547 -n 66 -e 99.996296
N -t 5.010547 -n 76 -e 99.996205
N -t 5.010547 -n 10 -e 99.996225
N -t 5.010547 -n 87 -e 99.996275
N -t 5.010547 -n 92 -e 99.996229
N -t 5.010547 -n 65 -e 99.996364
N -t 5.010547 -n 95 -e 99.996275
N -t 5.010547 -n 53 -e 99.996275
N -t 5.011061 -n 92 -e 99.996188
N -t 5.011062 -n 76 -e 99.996186
N -t 5.011062 -n 87 -e 99.996257
N -t 5.011062 -n 57 -e 99.996363
N -t 5.011062 -n 10 -e 99.996207
N -t 5.011062 -n 69 -e 99.996211
N -t 5.011062 -n 53 -e 99.996257
s 5.012101136 _66_ RTR  --- 0 AODV 48 [0 ffffffff a 800] [energy 99.996296 ei 0.004 es 0.000 et 0.000 er 0.000] ------- [66:255 -1:255 29 0] [0x2 2 1 [0 0] [10 4]] (REQUEST)
s 5.012243680 _69_ RTR  --- 0 AODV 48 [0 ffffffff a 800] [energy 99.996211 ei 0.004 es 0.000 et 0.000 er 0.000] ------- [69:255 -1:255 29 0] [0x2 2 1 [0 0] [10 4]] (REQUEST)
r 5.012563623 _95_ RTR  --- 0 AODV 48 [0 ffffffff 19 800] [energy 99.996275 ei 0.004 es 0.000 et 0.000 er 0.000] ------- [25:255 -1:255 28 0] [0x2 3 1 [0 0] [10 4]] (REQUEST)
r 5.012563646 _16_ RTR  --- 0 AODV 48 [0 ffffffff 19 800] [energy 99.996364 ei 0.004 es 0.000 et 0.000 er 0.000] ------- [25:255 -1:255 28 0] [0x2 3 1 [0 0] [10 4]] (REQUEST)
r 5.012563650 _24_ RTR  --- 0 AODV 48 [0 ffffffff 19 800] [energy 99.996364 ei 0.004 es 0.000 et 0.000 er 0.000] ------- [25:255 -1:255 28 0] [0x2 3 1 [0 0] [10 4]] (REQUEST)
s 5.012735830 _53_ RTR  --- 0 AODV 48 [0 ffffffff 4c 800] [energy 99.996257 ei 0.004 es 0.000 et 0.000 er 0.000] ------- [53:255 -1:255 28 0] [0x2 3 1 [0 0] [10 4]] (REQUEST)
r 5.013163560 _69_ RTR  --- 0 AODV 48 [0 ffffffff 22 800] [energy 99.996211 ei 0.004 es 0.000 et 0.000 er 0.000] ------- [34:255 -1:255 29 0] [0x2 2 1 [0 0] [10 4]] (REQUEST)
r 5.013163565 _73_ RTR  --- 0 AODV 48 [0 ffffffff 22 800] [energy 99.996364 ei 0.004 es 0.000 et 0.000 er 0.000] ------- [34:255 -1:255 29 0] [0x2 2 1 [0 0] [10 4]] (REQUEST)
r 5.013163584 _66_ RTR  --- 0 AODV 48 [0 ffffffff 22 800] [energy 99.996285 ei 0.004 es 0.000 et 0.000 er 0.000] ------- [34:255 -1:255 29 0] [0x2 2 1 [0 0] [10 4]] (REQUEST)
r 5.013163606 _65_ RTR  --- 0 AODV 48 [0 ffffffff 22 800] [energy 99.996364 ei 0.004 es 0.000 et 0.000 er 0.000] ------- [34:255 -1:255 29 0] [0x2 2 1 [0 0] [10 4]] (REQUEST)
N -t 5.013406 -n 73 -e 99.996294
N -t 5.013406 -n 34 -e 99.996156
N -t 5.013406 -n 69 -e 99.996141
N -t 5.013406 -n 17 -e 99.996362
N -t 5.013406 -n 65 -e 99.996294
N -t 5.013406 -n 10 -e 99.996138
r 5.013678491 _92_ RTR  --- 0 AODV 48 [0 ffffffff 2a 800] [energy 99.996166 ei 0.004 es 0.000 et 0.000 er 0.000] ------- [42:255 -1:255 29 0] [0x2 2 1 [0 0] [10 4]] (REQUEST)
r 5.013678521 _57_ RTR  --- 0 AODV 48 [0 ffffffff 2a 800] [energy 99.996363 ei 0.004 es 0.000 et 0.000 er 0.000] ------- [42:255 -1:255 29 0] [0x2 2 1 [0 0] [10 4]] (REQUEST)
N -t 5.013721 -n 87 -e 99.996188
N -t 5.013721 -n 25 -e 99.996223
N -t 5.013721 -n 95 -e 99.996206
N -t 5.013721 -n 76 -e 99.996117
N -t 5.013721 -n 16 -e 99.996294
N -t 5.013721 -n 24 -e 99.996294
N -t 5.013721 -n 92 -e 99.996096
N -t 5.013721 -n 42 -e 99.996156
N -t 5.013721 -n 34 -e 99.996145
N -t 5.013721 -n 69 -e 99.996130
s 5.013979067 _95_ RTR  --- 0 AODV 48 [0 ffffffff 4c 800] [energy 99.996206 ei 0.004 es 0.000 et 0.000 er 0.000] ------- [95:255 -1:255 28 0] [0x2 3 1 [0 0] [10 4]] (REQUEST)
s 5.014660559 _73_ RTR  --- 0 AODV 48 [0 ffffffff 22 800] [energy 99.996294 ei 0.004 es 0.000 et 0.000 er 0.000] ------- [73:255 -1:255 28 0] [0x2 3 1 [0 0] [10 4]] (REQUEST)
N -t 5.015966 -n 34 -e 99.996076
N -t 5.015966 -n 66 -e 99.996154
N -t 5.015966 -n 69 -e 99.996039
N -t 5.015966 -n 65 -e 99.996225
N -t 5.015966 -n 33 -e 99.996360
N -t 5.015966 -n 45 -e 99.996360
N -t 5.015966 -n 14 -e 99.996360
N -t 5.015966 -n 17 -e 99.996292
N -t 5.015966 -n 72 -e 99.996360
r 5.016023168 _73_ RTR  --- 0 AODV 48 [0 ffffffff 42 800] [energy 99.996221 ei 0.004 es 0.000 et 0.000 er 0.000] ------- [66:255 -1:255 29 0] [0x2 2 1 [0 0] [10 4]] (REQUEST)
r 5.016023187 _17_ RTR  --- 0 AODV 48 [0 ffffffff 42 800] [energy 99.996292 ei 0.004 es 0.000 et 0.000 er 0.000] ------- [66:255 -1:255 29 0] [0x2 2 1 [0 0] [10 4]] (REQUEST)
r 5.016023195 _65_ RTR  --- 0 AODV 48 [0 ffffffff 42 800] [energy 99.996225 ei 0.004 es 0.000 et 0.000 er 0.000] ------- [66:255 -1:255 29 0] [0x2 2 1 [0 0] [10 4]] (REQUEST)
r 5.016023199 _10_ RTR  --- 0 AODV 48 [0 ffffffff 42 800] [energy 99.996138 ei 0.004 es 0.000 et 0.000 er 0.000] ------- [66:255 -1:255 29 0] [0x2 2 1 [0 0] [10 4]] (REQUEST)
s 5.016116380 _16_ RTR  --- 0 AODV 48 [0 ffffffff 19 800] [energy 99.996294 ei 0.004 es 0.000 et 0.000 er 0.000] ------- [16:255 -1:255 27 0] [0x2 4 1 [0 0] [10 4]] (REQUEST)
r 5.016337850 _87_ RTR  --- 0 AODV 48 [0 ffffffff 35 800] [energy 99.996188 ei 0.004 es 0.000 et 0.000 er 0.000] ------- [53:255 -1:255 28 0] [0x2 3 1 [0 0] [10 4]] (REQUEST)
r 5.016337861 _25_ RTR  --- 0 AODV 48 [0 ffffffff 35 800] [energy 99.996223 ei 0.004 es 0.000 et 0.000 er 0.000] ------- [53:255 -1:255 28 0] [0x2 3 1 [0 0] [10 4]] (REQUEST)
r 5.016337861 _95_ RTR  --- 0 AODV 48 [0 ffffffff 35 800] [energy 99.996161 ei 0.004 es 0.000 et 0.000 er 0.000] ------- [53:255 -1:255 28 0] [0x2 3 1 [0 0] [10 4]] (REQUEST)
r 5.016337861 _76_ RTR  --- 0 AODV 48 [0 ffffffff 35 800] [energy 99.996117 ei 0.004 es 0.000 et 0.000 er 0.000] ------- [53:255 -1:255 28 0] [0x2 3 1 [0 0] [10 4]] (REQUEST)
r 5.016337866 _16_ RTR  --- 0 AODV 48 [0 ffffffff 35 800] [energy 99.996294 ei 0.004 es 0.000 et 0.000 er 0.000] ------- [53:255 -1:255 28 0] [0x2 3 1 [0 0] [10 4]] (REQUEST)
r 5.016337869 _24_ RTR  --- 0 AODV 48 [0 ffffffff 35 800] [energy 99.996294 ei 0.004 es 0.000 et 0.000 er 0.000] ------- [53:255 -1:255 28 0] [0x2 3 1 [0 0] [10 4]] (REQUEST)
r 5.016337883 _92_ RTR  --- 0 AODV 48 [0 ffffffff 35 800] [energy 99.996074 ei 0.004 es 0.000 et 0.000 er 0.000] ------- [53:255 -1:255 28 0] [0x2 3 1 [0 0] [10 4]] (REQUEST)
r 5.016337890 _42_ RTR  --- 0 AODV 48 [0 ffffffff 35 800] [energy 99.996156 ei 0.004 es 0.000 et 0.000 er 0.000] ------- [53:255 -1:255 28 0] [0x2 3 1 [0 0] [10 4]] (REQUEST)
N -t 5.017421 -n 24 -e 99.996224
N -t 5.017421 -n 25 -e 99.996153
N -t 5.017421 -n 95 -e 99.996091
N -t 5.017421 -n 53 -e 99.996114
N -t 5.017421 -n 68 -e 99.996359
N -t 5.017421 -n 87 -e 99.996118
s 5.017611021 _65_ RTR  --- 0 AODV 48 [0 ffffffff 22 800] [energy 99.996225 ei 0.004 es 0.000 et 0.000 er 0.000] ------- [65:255 -1:255 28 0] [0x2 3 1 [0 0] [10 4]] (REQUEST)
s 5.018186699 _87_ RTR  --- 0 AODV 48 [0 ffffffff 4c 800] [energy 99.996118 ei 0.004 es 0.000 et 0.000 er 0.000] ------- [87:255 -1:255 28 0] [0x2 3 1 [0 0] [10 4]] (REQUEST)
r 5.018582582 _34_ RTR  --- 0 AODV 48 [0 ffffffff 49 800] [energy 99.996076 ei 0.004 es 0.000 et 0.000 er 0.000] ------- [73:255 -1:255 28 0] [0x2 3 1 [0 0] [10 4]] (REQUEST)
r 5.018582592 _66_ RTR  --- 0 AODV 48 [0 ffffffff 49 800] [energy 99.996154 ei 0.004 es 0.000 et 0.000 er 0.000] ------- [73:255 -1:255 28 0] [0x2 3 1 [0 0] [10 4]] (REQUEST)
r 5.018582596 _69_ RTR  --- 0 AODV 48 [0 ffffffff 49 800] [energy 99.996039 ei 0.004 es 0.000 et 0.000 er 0.000] ------- [73:255 -1:255 28 0] [0x2 3 1 [0 0] [10 4]] (REQUEST)
r 5.018582600 _65_ RTR  --- 0 AODV 48 [0 ffffffff 49 800] [energy 99.996225 ei 0.004 es 0.000 et 0.000 er 0.000] ------- [73:255 -1:255 28 0] [0x2 3 1 [0 0] [10 4]] (REQUEST)
r 5.018582606 _33_ RTR  --- 0 AODV 48 [0 ffffffff 49 800] [energy 99.996360 ei 0.004 es 0.000 et 0.000 er 0.000] ------- [73:255 -1:255 28 0] [0x2 3 1 [0 0] [10 4]] (REQUEST)
r 5.018582619 _45_ RTR  --- 0 AODV 48 [0 ffffffff 49 800] [energy 99.996360 ei 0.004 es 0.000 et 0.000 er 0.000] ------- [73:255 -1:255 28 0] [0x2 3 1 [0 0] [10 4]] (REQUEST)
r 5.018582621 _14_ RTR  --- 0 AODV 48 [0 ffffffff 49 800] [energy 99.996360 ei 0.004 es 0.000 et 0.000 er 0.000] ------- [73:255 -1:255 28 0] [0x2 3 1 [0 0] [10 4]] (REQUEST)
r 5.018582621 _17_ RTR  --- 0 AODV 48 [0 ffffffff 49 800] [energy 99.996292 ei 0.004 es 0.000 et 0.000 er 0.000] ------- [73:255 -1:255 28 0] [0x2 3 1 [0 0] [10 4]] (REQUEST)
r 5.018582624 _72_ RTR  --- 0 AODV 48 [0 ffffffff 49 800] [energy 99.996360 ei 0.004 es 0.000 et 0.000 er 0.000] ------- [73:255 -1:255 28 0] [0x2 3 1 [0 0] [10 4]] (REQUEST)
N -t 5.019530 -n 42 -e 99.996084
N -t 5.019530 -n 76 -e 99.996045
N -t 5.019530 -n 87 -e 99.996026
N -t 5.019530 -n 10 -e 99.996066
N -t 5.019530 -n 69 -e 99.995959
N -t 5.019530 -n 53 -e 99.996045
N -t 5.019530 -n 57 -e 99.996290
N -t 5.019530 -n 34 -e 99.996006
s 5.019761545 _17_ RTR  --- 0 AODV 48 [0 ffffffff 42 800] [energy 99.996292 ei 0.004 es 0.000 et 0.000 er 0.000] ------- [17:255 -1:255 28 0] [0x2 3 1 [0 0] [10 4]] (REQUEST)
s 5.019994877 _57_ RTR  --- 0 AODV 48 [0 ffffffff 2a 800] [energy 99.996290 ei 0.004 es 0.000 et 0.000 er 0.000] ------- [57:255 -1:255 28 0] [0x2 3 1 [0 0] [10 4]] (REQUEST)
r 5.020038384 _24_ RTR  --- 0 AODV 48 [0 ffffffff 10 800] [energy 99.996224 ei 0.004 es 0.000 et 0.000 er 0.000] ------- [16:255 -1:255 27 0] [0x2 4 1 [0 0] [10 4]] (REQUEST)
r 5.020038408 _25_ RTR  --- 0 AODV 48 [0 ffffffff 10 800] [energy 99.996153 ei 0.004 es 0.000 et 0.000 er 0.000] ------- [16:255 -1:255 27 0] [0x2 4 1 [0 0] [10 4]] (REQUEST)
r 5.020038412 _95_ RTR  --- 0 AODV 48 [0 ffffffff 10 800] [energy 99.996091 ei 0.004 es 0.000 et 0.000 er 0.000] ------- [16:255 -1:255 27 0] [0x2 4 1 [0 0] [10 4]] (REQUEST)
r 5.020038417 _53_ RTR  --- 0 AODV 48 [0 ffffffff 10 800] [energy 99.996045 ei 0.004 es 0.000 et 0.000 er 0.000] ------- [16:255 -1:255 27 0] [0x2 4 1 [0 0] [10 4]] (REQUEST)
r 5.020038435 _68_ RTR  --- 0 AODV 48 [0 ffffffff 10 800] [energy 99.996359 ei 0.004 es 0.000 et 0.000 er 0.000] ------- [16:255 -1:255 27 0] [0x2 4 1 [0 0] [10 4]] (REQUEST)
r 5.020038437 _87_ RTR  --- 0 AODV 48 [0 ffffffff 10 800] [energy 99.996026 ei 0.004 es 0.000 et 0.000 er 0.000] ------- [16:255 -1:255 27 0] [0x2 4 1 [0 0] [10 4]] (REQUEST)
N -t 5.020196 -n 33 -e 99.996289
N -t 5.020196 -n 45 -e 99.996289
N -t 5.020196 -n 14 -e 99.996289
N -t 5.020196 -n 72 -e 99.996289
N -t 5.020196 -n 80 -e 99.996357
N -t 5.020196 -n 73 -e 99.996151
N -t 5.020196 -n 17 -e 99.996222
N -t 5.020196 -n 64 -e 99.996357
N -t 5.020196 -n 66 -e 99.996084
N -t 5.020196 -n 34 -e 99.995982
s 5.022046658 _24_ RTR  --- 0 AODV 48 [0 ffffffff 19 800] [energy 99.996224 ei 0.004 es 0.000 et 0.000 er 0.000] ------- [24:255 -1:255 27 0] [0x2 4 1 [0 0] [10 4]] (REQUEST)
r 5.022146866 _42_ RTR  --- 0 AODV 48 [0 ffffffff 5c 800] [energy 99.996084 ei 0.004 es 0.000 et 0.000 er 0.000] ------- [92:255 -1:255 29 0] [0x2 2 1 [0 0] [10 4]] (REQUEST)
r 5.022146874 _76_ RTR  --- 0 AODV 48 [0 ffffffff 5c 800] [energy 99.996045 ei 0.004 es 0.000 et 0.000 er 0.000] ------- [92:255 -1:255 29 0] [0x2 2 1 [0 0] [10 4]] (REQUEST)
r 5.022146886 _87_ RTR  --- 0 AODV 48 [0 ffffffff 5c 800] [energy 99.996026 ei 0.004 es 0.000 et 0.000 er 0.000] ------- [92:255 -1:255 29 0] [0x2 2 1 [0 0] [10 4]] (REQUEST)
r 5.022146894 _10_ RTR  --- 0 AODV 48 [0 ffffffff 5c 800] [energy 99.996066 ei 0.004 es 0.000 et 0.000 er 0.000] ------- [92:255 -1:255 29 0] [0x2 2 1 [0 0] [10 4]] (REQUEST)
r 5.022146898 _69_ RTR  --- 0 AODV 48 [0 ffffffff 5c 800] [energy 99.995959 ei 0.004 es 0.000 et 0.000 er 0.000] ------- [92:255 -1:255 29 0] [0x2 2 1 [0 0] [10 4]] (REQUEST)
r 5.022146906 _53_ RTR  --- 0 AODV 48 [0 ffffffff 5c 800] [energy 99.996045 ei 0.004 es 0.000 et 0.000 er 0.000] ------- [92:255 -1:255 29 0] [0x2 2 1 [0 0] [10 4]] (REQUEST)
r 5.022146910 _57_ RTR  --- 0 AODV 48 [0 ffffffff 5c 800] [energy 99.996278 ei 0.004 es 0.000 et 0.000 er 0.000] ------- [92:255 -1:255 29 0] [0x2 2 1 [0 0] [10 4]] (REQUEST)
N -t 5.022260 -n 42 -e 99.996015
N -t 5.022260 -n 92 -e 99.995930
s 5.022724743 _68_ RTR  --- 0 AODV 48 [0 ffffffff 10 800] [energy 99.996359 ei 0.004 es 0.000 et 0.000 er 0.000] ------- [68:255 -1:255 26 0] [0x2 5 1 [0 0] [10 4]] (REQUEST)
r 5.022813029 _33_ RTR  --- 0 AODV 48 [0 ffffffff 41 800] [energy 99.996289 ei 0.004 es 0.000 et 0.000 er 0.000] ------- [65:255 -1:255 28 0] [0x2 3 1 [0 0] [10 4]] (REQUEST)
r 5.022813040 _45_ RTR  --- 0 AODV 48 [0 ffffffff 41 800] [energy 99.996289 ei 0.004 es 0.000 et 0.000 er 0.000] ------- [65:255 -1:255 28 0] [0x2 3 1 [0 0] [10 4]] (REQUEST)
r 5.022813047 _14_ RTR  --- 0 AODV 48 [0 ffffffff 41 800] [energy 99.996289 ei 0.004 es 0.000 et 0.000 er 0.000] ------- [65:255 -1:255 28 0] [0x2 3 1 [0 0] [10 4]] (REQUEST)
r 5.022813048 _72_ RTR  --- 0 AODV 48 [0 ffffffff 41 800] [energy 99.996289 ei 0.004 es 0.000 et 0.000 er 0.000] ------- [65:255 -1:255 28 0] [0x2 3 1 [0 0] [10 4]] (REQUEST)
r 5.022813061 _80_ RTR  --- 0 AODV 48 [0 ffffffff 41 800] [energy 99.996357 ei 0.004 es 0.000 et 0.000 er 0.000] ------- [65:255 -1:255 28 0] [0x2 3 1 [0 0] [10 4]] (REQUEST)
r 5.022813062 _73_ RTR  --- 0 AODV 48 [0 ffffffff 41 800] [energy 99.996151 ei 0.004 es 0.000 et 0.000 er 0.000] ------- [65:255 -1:255 28 0] [0x2 3 1 [0 0] [10 4]] (REQUEST)
r 5.022813069 _17_ RTR  --- 0 AODV 48 [0 ffffffff 41 800] [energy 99.996177 ei 0.004 es 0.000 et 0.000 er 0.000] ------- [65:255 -1:255 28 0] [0x2 3 1 [0 0] [10 4]] (REQUEST)
r 5.022813073 _64_ RTR  --- 0 AODV 48 [0 ffffffff 41 800] [energy 99.996357 ei 0.004 es 0.000 et 0.000 er 0.000] ------- [65:255 -1:255 28 0] [0x2 3 1 [0 0] [10 4]] (REQUEST)
r 5.022813080 _66_ RTR  --- 0 AODV 48 [0 ffffffff 41 800] [energy 99.996084 ei 0.004 es 0.000 et 0.000 er 0.000] ------- [65:255 -1:255 28 0] [0x2 3 1 [0 0] [10 4]] (REQUEST)
s 5.023195382 _14_ RTR  --- 0 AODV 48 [0 ffffffff 49 800] [energy 99.996289 ei 0.004 es 0.000 et 0.000 er 0.000] ------- [14:255 -1:255 27 0] [0x2 4 1 [0 0] [10 4]] (REQUEST)
N -t 5.023220 -n 25 -e 99.996081
N -t 5.023220 -n 16 -e 99.996149
N -t 5.023220 -n 53 -e 99.995975
N -t 5.023220 -n 24 -e 99.996152
N -t 5.023220 -n 87 -e 99.995956
N -t 5.023220 -n 76 -e 99.995975
N -t 5.023220 -n 34 -e 99.995913
N -t 5.023540 -n 45 -e 99.996219
N -t 5.023540 -n 80 -e 99.996287
N -t 5.023540 -n 33 -e 99.996219
N -t 5.023540 -n 65 -e 99.996081
N -t 5.023540 -n 64 -e 99.996287
N -t 5.023540 -n 72 -e 99.996219
N -t 5.023540 -n 73 -e 99.996081
s 5.023783637 _72_ RTR  --- 0 AODV 48 [0 ffffffff 49 800] [energy 99.996219 ei 0.004 es 0.000 et 0.000 er 0.000] ------- [72:255 -1:255 27 0] [0x2 4 1 [0 0] [10 4]] (REQUEST)
N -t 5.024350 -n 24 -e 99.996112
N -t 5.024350 -n 16 -e 99.996109
r 5.024876921 _42_ RTR  --- 0 AODV 48 [0 ffffffff 39 800] [energy 99.996015 ei 0.004 es 0.000 et 0.000 er 0.000] ------- [57:255 -1:255 28 0] [0x2 3 1 [0 0] [10 4]] (REQUEST)
r 5.024876935 _92_ RTR  --- 0 AODV 48 [0 ffffffff 39 800] [energy 99.995930 ei 0.004 es 0.000 et 0.000 er 0.000] ------- [57:255 -1:255 28 0] [0x2 3 1 [0 0] [10 4]] (REQUEST)
s 5.025593695 _45_ RTR  --- 0 AODV 48 [0 ffffffff 49 800] [energy 99.996219 ei 0.004 es 0.000 et 0.000 er 0.000] ------- [45:255 -1:255 27 0] [0x2 4 1 [0 0] [10 4]] (REQUEST)
r 5.025837071 _25_ RTR  --- 0 AODV 48 [0 ffffffff 5f 800] [energy 99.996081 ei 0.004 es 0.000 et 0.000 er 0.000] ------- [95:255 -1:255 28 0] [0x2 3 1 [0 0] [10 4]] (REQUEST)
r 5.025837098 _53_ RTR  --- 0 AODV 48 [0 ffffffff 5f 800] [energy 99.995975 ei 0.004 es 0.000 et 0.000 er 0.000] ------- [95:255 -1:255 28 0] [0x2 3 1 [0 0] [10 4]] (REQUEST)
r 5.025837115 _87_ RTR  --- 0 AODV 48 [0 ffffffff 5f 800] [energy 99.995934 ei 0.004 es 0.000 et 0.000 er 0.000] ------- [95:255 -1:255 28 0] [0x2 3 1 [0 0] [10 4]] (REQUEST)
r 5.025837124 _76_ RTR  --- 0 AODV 48 [0 ffffffff 5f 800] [energy 99.995975 ei 0.004 es 0.000 et 0.000 er 0.000] ------- [95:255 -1:255 28 0] [0x2 3 1 [0 0] [10 4]] (REQUEST)
r 5.025837131 _34_ RTR  --- 0 AODV 48 [0 ffffffff 5f 800] [energy 99.995913 ei 0.004 es 0.000 et 0.000 er 0.000] ------- [95:255 -1:255 28 0] [0x2 3 1 [0 0] [10 4]] (REQUEST)
r 5.026157395 _45_ RTR  --- 0 AODV 48 [0 ffffffff e 800] [energy 99.996208 ei 0.004 es 0.000 et 0.000 er 0.000] ------- [14:255 -1:255 27 0] [0x2 4 1 [0 0] [10 4]] (REQUEST)
r 5.026157397 _80_ RTR  --- 0 AODV 48 [0 ffffffff e 800] [energy 99.996287 ei 0.004 es 0.000 et 0.000 er 0.000] ------- [14:255 -1:255 27 0] [0x2 4 1 [0 0] [10 4]] (REQUEST)
r 5.026157400 _33_ RTR  --- 0 AODV 48 [0 ffffffff e 800] [energy 99.996219 ei 0.004 es 0.000 et 0.000 er 0.000] ------- [14:255 -1:255 27 0] [0x2 4 1 [0 0] [10 4]] (REQUEST)
r 5.026157408 _65_ RTR  --- 0 AODV 48 [0 ffffffff e 800] [energy 99.996081 ei 0.004 es 0.000 et 0.000 er 0.000] ------- [14:255 -1:255 27 0] [0x2 4 1 [0 0] [10 4]] (REQUEST)
r 5.026157416 _64_ RTR  --- 0 AODV 48 [0 ffffffff e 800] [energy 99.996287 ei 0.004 es 0.000 et 0.000 er 0.000] ------- [14:255 -1:255 27 0] [0x2 4 1 [0 0] [10 4]] (REQUEST)
r 5.026157419 _72_ RTR  --- 0 AODV 48 [0 ffffffff e 800] [energy 99.996197 ei 0.004 es 0.000 et 0.000 er 0.000] ------- [14:255 -1:255 27 0] [0x2 4 1 [0 0] [10 4]] (REQUEST)
r 5.026157444 _73_ RTR  --- 0 AODV 48 [0 ffffffff e 800] [energy 99.996081 ei 0.004 es 0.000 et 0.000 er 0.000] ------- [14:255 -1:255 27 0] [0x2 4 1 [0 0] [10 4]] (REQUEST)
N -t 5.026259 -n 14 -e 99.996147
N -t 5.026259 -n 33 -e 99.996150
N -t 5.026259 -n 65 -e 99.996012
N -t 5.026259 -n 80 -e 99.996217
N -t 5.026259 -n 72 -e 99.996128
N -t 5.026259 -n 64 -e 99.996217
N -t 5.026259 -n 17 -e 99.996105
N -t 5.026259 -n 73 -e 99.996012
s 5.026995577 _33_ RTR  --- 0 AODV 48 [0 ffffffff 49 800] [energy 99.996150 ei 0.004 es 0.000 et 0.000 er 0.000] ------- [33:255 -1:255 27 0] [0x2 4 1 [0 0] [10 4]] (REQUEST)
N -t 5.027000 -n 16 -e 99.996040
N -t 5.027000 -n 25 -e 99.996011
N -t 5.027000 -n 95 -e 99.995946
N -t 5.027000 -n 53 -e 99.995905
N -t 5.027000 -n 68 -e 99.996214
N -t 5.027000 -n 87 -e 99.995864
s 5.027842840 _64_ RTR  --- 0 AODV 48 [0 ffffffff 41 800] [energy 99.996217 ei 0.004 es 0.000 et 0.000 er 0.000] ------- [64:255 -1:255 27 0] [0x2 4 1 [0 0] [10 4]] (REQUEST)
N -t 5.028828 -n 14 -e 99.996077
N -t 5.028828 -n 80 -e 99.996148
N -t 5.028828 -n 33 -e 99.996049
N -t 5.028828 -n 45 -e 99.996077
N -t 5.028828 -n 65 -e 99.995942
N -t 5.028828 -n 56 -e 99.996351
N -t 5.028828 -n 44 -e 99.996351
r 5.028875708 _14_ RTR  --- 0 AODV 48 [0 ffffffff 2d 800] [energy 99.996077 ei 0.004 es 0.000 et 0.000 er 0.000] ------- [45:255 -1:255 27 0] [0x2 4 1 [0 0] [10 4]] (REQUEST)
r 5.028875709 _33_ RTR  --- 0 AODV 48 [0 ffffffff 2d 800] [energy 99.996049 ei 0.004 es 0.000 et 0.000 er 0.000] ------- [45:255 -1:255 27 0] [0x2 4 1 [0 0] [10 4]] (REQUEST)
r 5.028875715 _65_ RTR  --- 0 AODV 48 [0 ffffffff 2d 800] [energy 99.995942 ei 0.004 es 0.000 et 0.000 er 0.000] ------- [45:255 -1:255 27 0] [0x2 4 1 [0 0] [10 4]] (REQUEST)
r 5.028875717 _80_ RTR  --- 0 AODV 48 [0 ffffffff 2d 800] [energy 99.996148 ei 0.004 es 0.000 et 0.000 er 0.000] ------- [45:255 -1:255 27 0] [0x2 4 1 [0 0] [10 4]] (REQUEST)
r 5.028875720 _72_ RTR  --- 0 AODV 48 [0 ffffffff 2d 800] [energy 99.996116 ei 0.004 es 0.000 et 0.000 er 0.000] ------- [45:255 -1:255 27 0] [0x2 4 1 [0 0] [10 4]] (REQUEST)
r 5.028875742 _64_ RTR  --- 0 AODV 48 [0 ffffffff 2d 800] [energy 99.996145 ei 0.004 es 0.000 et 0.000 er 0.000] ------- [45:255 -1:255 27 0] [0x2 4 1 [0 0] [10 4]] (REQUEST)
r 5.028875754 _17_ RTR  --- 0 AODV 48 [0 ffffffff 2d 800] [energy 99.996105 ei 0.004 es 0.000 et 0.000 er 0.000] ------- [45:255 -1:255 27 0] [0x2 4 1 [0 0] [10 4]] (REQUEST)
r 5.028875755 _73_ RTR  --- 0 AODV 48 [0 ffffffff 2d 800] [energy 99.996012 ei 0.004 es 0.000 et 0.000 er 0.000] ------- [45:255 -1:255 27 0] [0x2 4 1 [0 0] [10 4]] (REQUEST)
N -t 5.029057 -n 45 -e 99.996069
N -t 5.029057 -n 65 -e 99.995934
N -t 5.029057 -n 33 -e 99.996041
N -t 5.029057 -n 14 -e 99.996069
N -t 5.029057 -n 17 -e 99.996036
N -t 5.029057 -n 80 -e 99.996140
N -t 5.029057 -n 73 -e 99.995942
r 5.029616661 _16_ RTR  --- 0 AODV 48 [0 ffffffff 18 800] [energy 99.996040 ei 0.004 es 0.000 et 0.000 er 0.000] ------- [24:255 -1:255 27 0] [0x2 4 1 [0 0] [10 4]] (REQUEST)
r 5.029616689 _25_ RTR  --- 0 AODV 48 [0 ffffffff 18 800] [energy 99.996011 ei 0.004 es 0.000 et 0.000 er 0.000] ------- [24:255 -1:255 27 0] [0x2 4 1 [0 0] [10 4]] (REQUEST)
r 5.029616693 _95_ RTR  --- 0 AODV 48 [0 ffffffff 18 800] [energy 99.995946 ei 0.004 es 0.000 et 0.000 er 0.000] ------- [24:255 -1:255 27 0] [0x2 4 1 [0 0] [10 4]] (REQUEST)
r 5.029616697 _53_ RTR  --- 0 AODV 48 [0 ffffffff 18 800] [energy 99.995905 ei 0.004 es 0.000 et 0.000 er 0.000] ------- [24:255 -1:255 27 0] [0x2 4 1 [0 0] [10 4]] (REQUEST)
r 5.029616710 _68_ RTR  --- 0 AODV 48 [0 ffffffff 18 800] [energy 99.996214 ei 0.004 es 0.000 et 0.000 er 0.000] ------- [24:255 -1:255 27 0] [0x2 4 1 [0 0] [10 4]] (REQUEST)
r 5.029616717 _87_ RTR  --- 0 AODV 48 [0 ffffffff 18 800] [energy 99.995864 ei 0.004 es 0.000 et 0.000 er 0.001] ------- [24:255 -1:255 27 0] [0x2 4 1 [0 0] [10 4]] (REQUEST)
N -t 5.030628 -n 76 -e 99.995903
N -t 5.030628 -n 53 -e 99.995835
N -t 5.030628 -n 92 -e 99.995856
N -t 5.030628 -n 42 -e 99.995941
N -t 5.030628 -n 95 -e 99.995876
N -t 5.030628 -n 25 -e 99.995941
N -t 5.030628 -n 69 -e 99.995884
N -t 5.030628 -n 16 -e 99.995970
N -t 5.030628 -n 34 -e 99.995840
N -t 5.030628 -n 24 -e 99.995947
N -t 5.031201 -n 65 -e 99.995865
N -t 5.031201 -n 45 -e 99.996000
N -t 5.031201 -n 14 -e 99.996000
N -t 5.031201 -n 72 -e 99.995986
N -t 5.031201 -n 80 -e 99.996071
N -t 5.031201 -n 64 -e 99.996076
N -t 5.031201 -n 73 -e 99.995873
N -t 5.031201 -n 17 -e 99.995944
r 5.031444901 _56_ RTR  --- 0 AODV 48 [0 ffffffff 40 800] [energy 99.996351 ei 0.004 es 0.000 et 0.000 er 0.000] ------- [64:255 -1:255 27 0] [0x2 4 1 [0 0] [10 4]] (REQUEST)
r 5.031444904 _44_ RTR  --- 0 AODV 48 [0 ffffffff 40 800] [energy 99.996351 ei 0.004 es 0.000 et 0.000 er 0.000] ------- [64:255 -1:255 27 0] [0x2 4 1 [0 0] [10 4]] (REQUEST)
r 5.031673676 _17_ RTR  --- 0 AODV 48 [0 ffffffff 48 800] [energy 99.995944 ei 0.004 es 0.000 et 0.000 er 0.000] ------- [72:255 -1:255 27 0] [0x2 4 1 [0 0] [10 4]] (REQUEST)
r 5.031673703 _73_ RTR  --- 0 AODV 48 [0 ffffffff 48 800] [energy 99.995873 ei 0.004 es 0.000 et 0.000 er 0.000] ------- [72:255 -1:255 27 0] [0x2 4 1 [0 0] [10 4]] (REQUEST)
s 5.032686295 _80_ RTR  --- 0 AODV 48 [0 ffffffff 41 800] [energy 99.996071 ei 0.004 es 0.000 et 0.000 er 0.000] ------- [80:255 -1:255 27 0] [0x2 4 1 [0 0] [10 4]] (REQUEST)
r 5.033244711 _76_ RTR  --- 0 AODV 48 [0 ffffffff 57 800] [energy 99.995903 ei 0.004 es 0.000 et 0.000 er 0.000] ------- [87:255 -1:255 28 0] [0x2 3 1 [0 0] [10 4]] (REQUEST)
r 5.033244719 _53_ RTR  --- 0 AODV 48 [0 ffffffff 57 800] [energy 99.995835 ei 0.004 es 0.000 et 0.000 er 0.001] ------- [87:255 -1:255 28 0] [0x2 3 1 [0 0] [10 4]] (REQUEST)
r 5.033244733 _92_ RTR  --- 0 AODV 48 [0 ffffffff 57 800] [energy 99.995856 ei 0.004 es 0.000 et 0.000 er 0.001] ------- [87:255 -1:255 28 0] [0x2 3 1 [0 0] [10 4]] (REQUEST)
r 5.033244740 _42_ RTR  --- 0 AODV 48 [0 ffffffff 57 800] [energy 99.995941 ei 0.004 es 0.000 et 0.000 er 0.000] ------- [87:255 -1:255 28 0] [0x2 3 1 [0 0] [10 4]] (REQUEST)
r 5.033244747 _95_ RTR  --- 0 AODV 48 [0 ffffffff 57 800] [energy 99.995876 ei 0.004 es 0.000 et 0.000 er 0.000] ------- [87:255 -1:255 28 0] [0x2 3 1 [0 0] [10 4]] (REQUEST)
r 5.033244748 _25_ RTR  --- 0 AODV 48 [0 ffffffff 57 800] [energy 99.995941 ei 0.004 es 0.000 et 0.000 er 0.000] ------- [87:255 -1:255 28 0] [0x2 3 1 [0 0] [10 4]] (REQUEST)
r 5.033244754 _69_ RTR  --- 0 AODV 48 [0 ffffffff 57 800] [energy 99.995884 ei 0.004 es 0.000 et 0.000 er 0.001] ------- [87:255 -1:255 28 0] [0x2 3 1 [0 0] [10 4]] (REQUEST)
r 5.033244755 _16_ RTR  --- 0 AODV 48 [0 ffffffff 57 800] [energy 99.995970 ei 0.004 es 0.000 et 0.000 er 0.000] ------- [87:255 -1:255 28 0] [0x2 3 1 [0 0] [10 4]] (REQUEST)
r 5.033244757 _34_ RTR  --- 0 AODV 48 [0 ffffffff 57 800] [energy 99.995840 ei 0.004 es 0.000 et 0.000 er 0.001] ------- [87:255 -1:255 28 0] [0x2 3 1 [0 0] [10 4]] (REQUEST)
r 5.033244758 _24_ RTR  --- 0 AODV 48 [0 ffffffff 57 800] [energy 99.995947 ei 0.004 es 0.000 et 0.000 er 0.000] ------- [87:255 -1:255 28 0] [0x2 3 1 [0 0] [10 4]] (REQUEST)
r 5.033817675 _65_ RTR  --- 0 AODV 48 [0 ffffffff 21 800] [energy 99.995865 ei 0.004 es 0.000 et 0.000 er 0.001] ------- [33:255 -1:255 27 0] [0x2 4 1 [0 0] [10 4]] (REQUEST)
r 5.033817680 _45_ RTR  --- 0 AODV 48 [0 ffffffff 21 800] [energy 99.996000 ei 0.004 es 0.000 et 0.000 er 0.000] ------- [33:255 -1:255 27 0] [0x2 4 1 [0 0] [10 4]] (REQUEST)
r 5.033817685 _14_ RTR  --- 0 AODV 48 [0 ffffffff 21 800] [energy 99.996000 ei 0.004 es 0.000 et 0.000 er 0.000] ------- [33:255 -1:255 27 0] [0x2 4 1 [0 0] [10 4]] (REQUEST)
r 5.033817696 _72_ RTR  --- 0 AODV 48 [0 ffffffff 21 800] [energy 99.995986 ei 0.004 es 0.000 et 0.000 er 0.000] ------- [33:255 -1:255 27 0] [0x2 4 1 [0 0] [10 4]] (REQUEST)
r 5.033817699 _80_ RTR  --- 0 AODV 48 [0 ffffffff 21 800] [energy 99.996060 ei 0.004 es 0.000 et 0.000 er 0.000] ------- [33:255 -1:255 27 0] [0x2 4 1 [0 0] [10 4]] (REQUEST)
r 5.033817712 _64_ RTR  --- 0 AODV 48 [0 ffffffff 21 800] [energy 99.996076 ei 0.004 es 0.000 et 0.000 er 0.000] ------- [33:255 -1:255 27 0] [0x2 4 1 [0 0] [10 4]] (REQUEST)
r 5.033817714 _73_ RTR  --- 0 AODV 48 [0 ffffffff 21 800] [energy 99.995873 ei 0.004 es 0.000 et 0.000 er 0.000] ------- [33:255 -1:255 27 0] [0x2 4 1 [0 0] [10 4]] (REQUEST)
r 5.033817722 _17_ RTR  --- 0 AODV 48 [0 ffffffff 21 800] [energy 99.995933 ei 0.004 es 0.000 et 0.000 er 0.000] ------- [33:255 -1:255 27 0] [0x2 4 1 [0 0] [10 4]] (REQUEST)
N -t 5.033931 -n 72 -e 99.995916
N -t 5.033931 -n 65 -e 99.995796
N -t 5.033931 -n 66 -e 99.996006