s 0.064143421 _6_ RTR  --- 0 message 32 [0 0 0 0] [energy 100.000000 ei 0.000 es 0.000 et 0.000 er 0.000] ------- [6:255 -1:255 32 0] 
N -t 0.065448 -n 1 -e 99.999903
r 0.067553459 _1_ RTR  --- 0 message 32 [0 ffffffff 6 800] [energy 99.999903 ei 0.000 es 0.000 et 0.000 er 0.000] ------- [6:255 -1:255 32 0] 
s 0.106127935 _18_ RTR  --- 1 message 32 [0 0 0 0] [energy 100.000000 ei 0.000 es 0.000 et 0.000 er 0.000] ------- [18:255 -1:255 32 0] 
N -t 0.106473 -n 15 -e 99.999873
r 0.108577990 _15_ RTR  --- 1 message 32 [0 ffffffff 12 800] [energy 99.999873 ei 0.000 es 0.000 et 0.000 er 0.000] ------- [18:255 -1:255 32 0] 
s 0.179960877 _23_ RTR  --- 2 message 32 [0 0 0 0] [energy 100.000000 ei 0.000 es 0.000 et 0.000 er 0.000] ------- [23:255 -1:255 32 0] 
s 0.190551583 _16_ RTR  --- 3 message 32 [0 0 0 0] [energy 100.000000 ei 0.000 es 0.000 et 0.000 er 0.000] ------- [16:255 -1:255 32 0] 
N -t 0.193137 -n 13 -e 99.999812
N -t 0.193137 -n 10 -e 99.999812
N -t 0.193137 -n 21 -e 99.999812
r 0.195241600 _13_ RTR  --- 3 message 32 [0 ffffffff 10 800] [energy 99.999812 ei 0.000 es 0.000 et 0.000 er 0.000] ------- [16:255 -1:255 32 0] 
r 0.195241610 _10_ RTR  --- 3 message 32 [0 ffffffff 10 800] [energy 99.999812 ei 0.000 es 0.000 et 0.000 er 0.000] ------- [16:255 -1:255 32 0] 
r 0.195241649 _21_ RTR  --- 3 message 32 [0 ffffffff 10 800] [energy 99.999812 ei 0.000 es 0.000 et 0.000 er 0.000] ------- [16:255 -1:255 32 0] 
s 0.361519475 _14_ RTR  --- 4 message 32 [0 0 0 0] [energy 100.000000 ei 0.000 es 0.000 et 0.000 er 0.000] ------- [14:255 -1:255 32 0] 
N -t 0.363785 -n 22 -e 99.999690
r 0.365889539 _22_ RTR  --- 4 message 32 [0 ffffffff e 800] [energy 99.999690 ei 0.000 es 0.000 et 0.000 er 0.000] ------- [14:255 -1:255 32 0] 
s 0.372430252 _8_ RTR  --- 5 message 32 [0 0 0 0] [energy 100.000000 ei 0.000 es 0.000 et 0.000 er 0.000] ------- [8:255 -1:255 32 0] 
N -t 0.373415 -n 3 -e 99.999683
r 0.375520308 _3_ RTR  --- 5 message 32 [0 ffffffff 8 800] [energy 99.999683 ei 0.000 es 0.000 et 0.000 er 0.000] ------- [8:255 -1:255 32 0] 
s 0.420424955 _12_ RTR  --- 6 message 32 [0 0 0 0] [energy 100.000000 ei 0.000 es 0.000 et 0.000 er 0.000] ------- [12:255 -1:255 32 0] 
N -t 0.422690 -n 4 -e 99.999648
N -t 0.422690 -n 9 -e 99.999648
N -t 0.422690 -n 0 -e 99.999648
r 0.424794983 _4_ RTR  --- 6 message 32 [0 ffffffff c 800] [energy 99.999648 ei 0.000 es 0.000 et 0.000 er 0.000] ------- [12:255 -1:255 32 0] 
r 0.424794991 _9_ RTR  --- 6 message 32 [0 ffffffff c 800] [energy 99.999648 ei 0.000 es 0.000 et 0.000 er 0.000] ------- [12:255 -1:255 32 0] 
r 0.424795008 _0_ RTR  --- 6 message 32 [0 ffffffff c 800] [energy 99.999648 ei 0.000 es 0.000 et 0.000 er 0.000] ------- [12:255 -1:255 32 0] 
s 0.527300768 _3_ RTR  --- 7 message 32 [0 0 0 0] [energy 99.999683 ei 0.000 es 0.000 et 0.000 er 0.000] ------- [3:255 -1:255 32 0] 
N -t 0.529566 -n 8 -e 99.999517
r 0.531670824 _8_ RTR  --- 7 message 32 [0 ffffffff 3 800] [energy 99.999517 ei 0.000 es 0.000 et 0.000 er 0.000] ------- [3:255 -1:255 32 0] 
s 0.657851347 _7_ RTR  --- 8 message 32 [0 0 0 0] [energy 100.000000 ei 0.000 es 0.000 et 0.000 er 0.000] ------- [7:255 -1:255 32 0] 
N -t 0.660436 -n 20 -e 99.999479
N -t 0.660436 -n 15 -e 99.999429
r 0.662541388 _20_ RTR  --- 8 message 32 [0 ffffffff 7 800] [energy 99.999479 ei 0.000 es 0.000 et 0.000 er 0.000] ------- [7:255 -1:255 32 0] 
r 0.662541407 _15_ RTR  --- 8 message 32 [0 ffffffff 7 800] [energy 99.999429 ei 0.000 es 0.000 et 0.000 er 0.000] ------- [7:255 -1:255 32 0] 
s 0.850498420 _22_ RTR  --- 9 message 32 [0 0 0 0] [energy 99.999690 ei 0.000 es 0.000 et 0.000 er 0.000] ------- [22:255 -1:255 32 0] 
N -t 0.852763 -n 2 -e 99.999342
N -t 0.852763 -n 14 -e 99.999287
N -t 0.852763 -n 24 -e 99.999342
N -t 0.852763 -n 11 -e 99.999342
r 0.854868451 _2_ RTR  --- 9 message 32 [0 ffffffff 16 800] [energy 99.999342 ei 0.001 es 0.000 et 0.000 er 0.000] ------- [22:255 -1:255 32 0] 
r 0.854868484 _14_ RTR  --- 9 message 32 [0 ffffffff 16 800] [energy 99.999287 ei 0.001 es 0.000 et 0.000 er 0.000] ------- [22:255 -1:255 32 0] 
r 0.854868485 _24_ RTR  --- 9 message 32 [0 ffffffff 16 800] [energy 99.999342 ei 0.001 es 0.000 et 0.000 er 0.000] ------- [22:255 -1:255 32 0] 
r 0.854868487 _11_ RTR  --- 9 message 32 [0 ffffffff 16 800] [energy 99.999342 ei 0.001 es 0.000 et 0.000 er 0.000] ------- [22:255 -1:255 32 0] 
s 0.858926911 _5_ RTR  --- 10 message 32 [0 0 0 0] [energy 100.000000 ei 0.000 es 0.000 et 0.000 er 0.000] ------- [5:255 -1:255 32 0] 
N -t 0.860872 -n 21 -e 99.999286
r 0.862976964 _21_ RTR  --- 10 message 32 [0 ffffffff 5 800] [energy 99.999286 ei 0.001 es 0.000 et 0.000 er 0.000] ------- [5:255 -1:255 32 0] 
s 0.988650876 _17_ RTR  --- 11 message 32 [0 0 0 0] [energy 100.000000 ei 0.000 es 0.000 et 0.000 er 0.000] ------- [17:255 -1:255 32 0] 
s 1.065957076 _20_ RTR  --- 12 message 32 [0 0 0 0] [energy 99.999479 ei 0.000 es 0.000 et 0.000 er 0.000] ------- [20:255 -1:255 32 0] 
N -t 1.066302 -n 15 -e 99.999090
N -t 1.066302 -n 7 -e 99.999135
r 1.068407097 _15_ RTR  --- 12 message 32 [0 ffffffff 14 800] [energy 99.999090 ei 0.001 es 0.000 et 0.000 er 0.000] ------- [20:255 -1:255 32 0] 
r 1.068407117 _7_ RTR  --- 12 message 32 [0 ffffffff 14 800] [energy 99.999135 ei 0.001 es 0.000 et 0.000 er 0.000] ------- [20:255 -1:255 32 0] 
s 1.092956054 _1_ RTR  --- 13 message 32 [0 0 0 0] [energy 99.999903 ei 0.000 es 0.000 et 0.000 er 0.000] ------- [1:255 -1:255 32 0] 
N -t 1.094581 -n 6 -e 99.999115
r 1.096686092 _6_ RTR  --- 13 message 32 [0 ffffffff 1 800] [energy 99.999115 ei 0.001 es 0.000 et 0.000 er 0.000] ------- [1:255 -1:255 32 0] 
s 1.111820867 _4_ RTR  --- 14 message 32 [0 0 0 0] [energy 99.999648 ei 0.000 es 0.000 et 0.000 er 0.000] ------- [4:255 -1:255 32 0] 
N -t 1.113446 -n 12 -e 99.999101
N -t 1.113446 -n 9 -e 99.999107
r 1.115550896 _12_ RTR  --- 14 message 32 [0 ffffffff 4 800] [energy 99.999101 ei 0.001 es 0.000 et 0.000 er 0.000] ------- [4:255 -1:255 32 0] 
r 1.115550898 _9_ RTR  --- 14 message 32 [0 ffffffff 4 800] [energy 99.999107 ei 0.001 es 0.000 et 0.000 er 0.000] ------- [4:255 -1:255 32 0] 
s 1.393949314 _13_ RTR  --- 15 message 32 [0 0 0 0] [energy 99.999812 ei 0.000 es 0.000 et 0.000 er 0.000] ------- [13:255 -1:255 32 0] 
N -t 1.394294 -n 16 -e 99.998901
N -t 1.394294 -n 10 -e 99.998907
r 1.396399331 _16_ RTR  --- 15 message 32 [0 ffffffff d 800] [energy 99.998901 ei 0.001 es 0.000 et 0.000 er 0.000] ------- [13:255 -1:255 32 0] 
r 1.396399352 _10_ RTR  --- 15 message 32 [0 ffffffff d 800] [energy 99.998907 ei 0.001 es 0.000 et 0.000 er 0.000] ------- [13:255 -1:255 32 0] 
s 1.406314462 _0_ RTR  --- 16 message 32 [0 0 0 0] [energy 99.999648 ei 0.000 es 0.000 et 0.000 er 0.000] ------- [0:255 -1:255 32 0] 
N -t 1.408260 -n 12 -e 99.998842
r 1.410364514 _12_ RTR  --- 16 message 32 [0 ffffffff 0 800] [energy 99.998842 ei 0.001 es 0.000 et 0.000 er 0.000] ------- [0:255 -1:255 32 0] 
s 1.471767389 _21_ RTR  --- 17 message 32 [0 0 0 0] [energy 99.999286 ei 0.001 es 0.000 et 0.000 er 0.000] ------- [21:255 -1:255 32 0] 
N -t 1.472752 -n 10 -e 99.998801
N -t 1.472752 -n 5 -e 99.998845
N -t 1.472752 -n 16 -e 99.998796
r 1.474857430 _10_ RTR  --- 17 message 32 [0 ffffffff 15 800] [energy 99.998801 ei 0.001 es 0.000 et 0.000 er 0.000] ------- [21:255 -1:255 32 0] 
r 1.474857442 _5_ RTR  --- 17 message 32 [0 ffffffff 15 800] [energy 99.998845 ei 0.001 es 0.000 et 0.000 er 0.000] ------- [21:255 -1:255 32 0] 
r 1.474857455 _16_ RTR  --- 17 message 32 [0 ffffffff 15 800] [energy 99.998796 ei 0.001 es 0.000 et 0.000 er 0.000] ------- [21:255 -1:255 32 0] 
s 1.547158322 _11_ RTR  --- 18 message 32 [0 0 0 0] [energy 99.999342 ei 0.001 es 0.000 et 0.000 er 0.000] ------- [11:255 -1:255 32 0] 
N -t 1.549103 -n 2 -e 99.998796
N -t 1.549103 -n 22 -e 99.998741
r 1.551208376 _2_ RTR  --- 18 message 32 [0 ffffffff b 800] [energy 99.998796 ei 0.001 es 0.000 et 0.000 er 0.000] ------- [11:255 -1:255 32 0] 
r 1.551208389 _22_ RTR  --- 18 message 32 [0 ffffffff b 800] [energy 99.998741 ei 0.001 es 0.000 et 0.000 er 0.000] ------- [11:255 -1:255 32 0] 
s 1.575759217 _9_ RTR  --- 19 message 32 [0 0 0 0] [energy 99.999107 ei 0.001 es 0.000 et 0.000 er 0.000] ------- [9:255 -1:255 32 0] 
N -t 1.576744 -n 4 -e 99.998722
N -t 1.576744 -n 12 -e 99.998672
N -t 1.576744 -n 24 -e 99.998777
r 1.578849248 _4_ RTR  --- 19 message 32 [0 ffffffff 9 800] [energy 99.998722 ei 0.001 es 0.000 et 0.000 er 0.000] ------- [9:255 -1:255 32 0] 
r 1.578849253 _12_ RTR  --- 19 message 32 [0 ffffffff 9 800] [energy 99.998672 ei 0.001 es 0.000 et 0.000 er 0.000] ------- [9:255 -1:255 32 0] 
r 1.578849271 _24_ RTR  --- 19 message 32 [0 ffffffff 9 800] [energy 99.998777 ei 0.001 es 0.000 et 0.000 er 0.000] ------- [9:255 -1:255 32 0] 
s 1.637102722 _24_ RTR  --- 20 message 32 [0 0 0 0] [energy 99.998777 ei 0.001 es 0.000 et 0.000 er 0.000] ------- [24:255 -1:255 32 0] 
N -t 1.639048 -n 2 -e 99.998683
N -t 1.639048 -n 9 -e 99.998628
N -t 1.639048 -n 22 -e 99.998628
r 1.641152768 _2_ RTR  --- 20 message 32 [0 ffffffff 18 800] [energy 99.998683 ei 0.001 es 0.000 et 0.000 er 0.000] ------- [24:255 -1:255 32 0] 
r 1.641152775 _9_ RTR  --- 20 message 32 [0 ffffffff 18 800] [energy 99.998628 ei 0.001 es 0.000 et 0.000 er 0.000] ------- [24:255 -1:255 32 0] 
r 1.641152787 _22_ RTR  --- 20 message 32 [0 ffffffff 18 800] [energy 99.998628 ei 0.001 es 0.000 et 0.000 er 0.000] ------- [24:255 -1:255 32 0] 
s 1.738151342 _19_ RTR  --- 21 message 32 [0 0 0 0] [energy 100.000000 ei 0.000 es 0.000 et 0.000 er 0.000] ------- [19:255 -1:255 32 0] 
s 1.755601116 _2_ RTR  --- 22 message 32 [0 0 0 0] [energy 99.998683 ei 0.001 es 0.000 et 0.000 er 0.000] ------- [2:255 -1:255 32 0] 
N -t 1.757226 -n 22 -e 99.998494
N -t 1.757226 -n 24 -e 99.998543
N -t 1.757226 -n 11 -e 99.998593
r 1.759331147 _22_ RTR  --- 22 message 32 [0 ffffffff 2 800] [energy 99.998494 ei 0.001 es 0.000 et 0.000 er 0.000] ------- [2:255 -1:255 32 0] 
r 1.759331162 _24_ RTR  --- 22 message 32 [0 ffffffff 2 800] [energy 99.998543 ei 0.001 es 0.000 et 0.000 er 0.000] ------- [2:255 -1:255 32 0] 
r 1.759331169 _11_ RTR  --- 22 message 32 [0 ffffffff 2 800] [energy 99.998593 ei 0.001 es 0.000 et 0.000 er 0.000] ------- [2:255 -1:255 32 0] 
s 1.898232116 _10_ RTR  --- 23 message 32 [0 0 0 0] [energy 99.998801 ei 0.001 es 0.000 et 0.000 er 0.000] ------- [10:255 -1:255 32 0] 
N -t 1.900177 -n 16 -e 99.998442
N -t 1.900177 -n 13 -e 99.998491
N -t 1.900177 -n 21 -e 99.998442
r 1.902282143 _16_ RTR  --- 23 message 32 [0 ffffffff a 800] [energy 99.998442 ei 0.001 es 0.000 et 0.000 er 0.000] ------- [10:255 -1:255 32 0] 
r 1.902282154 _13_ RTR  --- 23 message 32 [0 ffffffff a 800] [energy 99.998491 ei 0.001 es 0.000 et 0.000 er 0.000] ------- [10:255 -1:255 32 0] 
r 1.902282157 _21_ RTR  --- 23 message 32 [0 ffffffff a 800] [energy 99.998442 ei 0.001 es 0.000 et 0.000 er 0.000] ------- [10:255 -1:255 32 0] 
s 1.961070471 _15_ RTR  --- 24 message 32 [0 0 0 0] [energy 99.999090 ei 0.001 es 0.000 et 0.000 er 0.000] ------- [15:255 -1:255 32 0] 
N -t 1.963335 -n 20 -e 99.998446
N -t 1.963336 -n 18 -e 99.998496
N -t 1.963336 -n 7 -e 99.998446
r 1.965440492 _20_ RTR  --- 24 message 32 [0 ffffffff f 800] [energy 99.998446 ei 0.001 es 0.000 et 0.000 er 0.000] ------- [15:255 -1:255 32 0] 
r 1.965440527 _18_ RTR  --- 24 message 32 [0 ffffffff f 800] [energy 99.998496 ei 0.001 es 0.000 et 0.000 er 0.000] ------- [15:255 -1:255 32 0] 
r 1.965440532 _7_ RTR  --- 24 message 32 [0 ffffffff f 800] [energy 99.998446 ei 0.001 es 0.000 et 0.000 er 0.000] ------- [15:255 -1:255 32 0] 
s 5.000000000 _5_ AGT  --- 25 cbr 50 [0 0 0 0] [energy 99.998845 ei 0.001 es 0.000 et 0.000 er 0.000] ------- [5:0 0:0 32 0] [0] 0 0
r 5.000000000 _5_ RTR  --- 25 cbr 50 [0 0 0 0] [energy 99.998845 ei 0.001 es 0.000 et 0.000 er 0.000] ------- [5:0 0:0 32 0] [0] 0 0
s 7.000000000 _5_ AGT  --- 26 cbr 50 [0 0 0 0] [energy 99.998845 ei 0.001 es 0.000 et 0.000 er 0.000] ------- [5:0 0:0 32 0] [1] 0 0
r 7.000000000 _5_ RTR  --- 26 cbr 50 [0 0 0 0] [energy 99.998845 ei 0.001 es 0.000 et 0.000 er 0.000] ------- [5:0 0:0 32 0] [1] 0 0
s 9.000000000 _5_ AGT  --- 27 cbr 50 [0 0 0 0] [energy 99.998845 ei 0.001 es 0.000 et 0.000 er 0.000] ------- [5:0 0:0 32 0] [2] 0 0
r 9.000000000 _5_ RTR  --- 27 cbr 50 [0 0 0 0] [energy 99.998845 ei 0.001 es 0.000 et 0.000 er 0.000] ------- [5:0 0:0 32 0] [2] 0 0
s 11.000000000 _5_ AGT  --- 28 cbr 50 [0 0 0 0] [energy 99.998845 ei 0.001 es 0.000 et 0.000 er 0.000] ------- [5:0 0:0 32 0] [3] 0 0
r 11.000000000 _5_ RTR  --- 28 cbr 50 [0 0 0 0] [energy 99.998845 ei 0.001 es 0.000 et 0.000 er 0.000] ------- [5:0 0:0 32 0] [3] 0 0
s 11.940692914 _8_ RTR  --- 29 message 32 [0 0 0 0] [energy 99.999517 ei 0.000 es 0.000 et 0.000 er 0.000] ------- [8:255 -1:255 32 0] 
N -t 11.941358 -n 3 -e 99.991342
r 11.943462970 _3_ RTR  --- 29 message 32 [0 ffffffff 8 800] [energy 99.991342 ei 0.008 es 0.000 et 0.000 er 0.000] ------- [8:255 -1:255 32 0] 
s 12.077271765 _1_ RTR  --- 30 message 32 [0 0 0 0] [energy 99.999115 ei 0.001 es 0.000 et 0.000 er 0.000] ------- [1:255 -1:255 32 0] 
N -t 12.078897 -n 6 -e 99.991244
r 12.081001803 _6_ RTR  --- 30 message 32 [0 ffffffff 1 800] [energy 99.991244 ei 0.009 es 0.000 et 0.000 er 0.000] ------- [1:255 -1:255 32 0] 
s 12.117387786 _15_ RTR  --- 31 message 32 [0 0 0 0] [energy 99.998397 ei 0.001 es 0.000 et 0.000 er 0.000] ------- [15:255 -1:255 32 0] 
N -t 12.118693 -n 20 -e 99.991166
N -t 12.118693 -n 18 -e 99.991216
N -t 12.118693 -n 7 -e 99.991166
r 12.120797807 _20_ RTR  --- 31 message 32 [0 ffffffff f 800] [energy 99.991166 ei 0.009 es 0.000 et 0.000 er 0.000] ------- [15:255 -1:255 32 0] 
r 12.120797842 _18_ RTR  --- 31 message 32 [0 ffffffff f 800] [energy 99.991216 ei 0.009 es 0.000 et 0.000 er 0.000] ------- [15:255 -1:255 32 0] 
r 12.120797847 _7_ RTR  --- 31 message 32 [0 ffffffff f 800] [energy 99.991166 ei 0.009 es 0.000 et 0.000 er 0.000] ------- [15:255 -1:255 32 0] 
s 12.197870208 _13_ RTR  --- 32 message 32 [0 0 0 0] [energy 99.998491 ei 0.001 es 0.000 et 0.000 er 0.000] ------- [13:255 -1:255 32 0] 
N -t 12.198215 -n 16 -e 99.991060
N -t 12.198215 -n 10 -e 99.991060
s 12.200036772 _10_ RTR  --- 33 message 32 [0 0 0 0] [energy 99.991060 ei 0.009 es 0.000 et 0.000 er 0.000] ------- [10:255 -1:255 32 0] 
r 12.200320225 _16_ RTR  --- 32 message 32 [0 ffffffff d 800] [energy 99.991060 ei 0.009 es 0.000 et 0.000 er 0.000] ------- [13:255 -1:255 32 0] 
r 12.200320247 _10_ RTR  --- 32 message 32 [0 ffffffff d 800] [energy 99.991060 ei 0.009 es 0.000 et 0.000 er 0.000] ------- [13:255 -1:255 32 0] 
N -t 12.200702 -n 16 -e 99.991008
N -t 12.200702 -n 13 -e 99.991052
N -t 12.200702 -n 21 -e 99.991058
s 12.202738581 _21_ RTR  --- 34 message 32 [0 0 0 0] [energy 99.991058 ei 0.009 es 0.000 et 0.000 er 0.000] ------- [21:255 -1:255 32 0] 
r 12.202806799 _16_ RTR  --- 33 message 32 [0 ffffffff a 800] [energy 99.991008 ei 0.009 es 0.000 et 0.000 er 0.000] ------- [10:255 -1:255 32 0] 
r 12.202806810 _13_ RTR  --- 33 message 32 [0 ffffffff a 800] [energy 99.991052 ei 0.009 es 0.000 et 0.000 er 0.000] ------- [10:255 -1:255 32 0] 
r 12.202806813 _21_ RTR  --- 33 message 32 [0 ffffffff a 800] [energy 99.991058 ei 0.009 es 0.000 et 0.000 er 0.000] ------- [10:255 -1:255 32 0] 
N -t 12.205004 -n 10 -e 99.990950
N -t 12.205004 -n 5 -e 99.991154
N -t 12.205004 -n 16 -e 99.990955
r 12.207108622 _10_ RTR  --- 34 message 32 [0 ffffffff 15 800] [energy 99.990950 ei 0.009 es 0.000 et 0.000 er 0.000] ------- [21:255 -1:255 32 0] 
r 12.207108633 _5_ RTR  --- 34 message 32 [0 ffffffff 15 800] [energy 99.991154 ei 0.009 es 0.000 et 0.000 er 0.000] ------- [21:255 -1:255 32 0] 
r 12.207108647 _16_ RTR  --- 34 message 32 [0 ffffffff 15 800] [energy 99.990955 ei 0.009 es 0.000 et 0.000 er 0.000] ------- [21:255 -1:255 32 0] 
s 12.367508098 _22_ RTR  --- 35 message 32 [0 0 0 0] [energy 99.998494 ei 0.001 es 0.000 et 0.000 er 0.000] ------- [22:255 -1:255 32 0] 
N -t 12.369133 -n 2 -e 99.990938
N -t 12.369133 -n 14 -e 99.991037
N -t 12.369133 -n 24 -e 99.990938
N -t 12.369133 -n 11 -e 99.990988
r 12.371238129 _2_ RTR  --- 35 message 32 [0 ffffffff 16 800] [energy 99.990938 ei 0.009 es 0.000 et 0.000 er 0.000] ------- [22:255 -1:255 32 0] 
r 12.371238162 _14_ RTR  --- 35 message 32 [0 ffffffff 16 800] [energy 99.991037 ei 0.009 es 0.000 et 0.000 er 0.000] ------- [22:255 -1:255 32 0] 
r 12.371238163 _24_ RTR  --- 35 message 32 [0 ffffffff 16 800] [energy 99.990938 ei 0.009 es 0.000 et 0.000 er 0.000] ------- [22:255 -1:255 32 0] 
r 12.371238165 _11_ RTR  --- 35 message 32 [0 ffffffff 16 800] [energy 99.990988 ei 0.009 es 0.000 et 0.000 er 0.000] ------- [22:255 -1:255 32 0] 
s 12.428581356 _4_ RTR  --- 37 message 32 [0 0 0 0] [energy 99.998722 ei 0.001 es 0.000 et 0.000 er 0.000] ------- [4:255 -1:255 32 0] 
N -t 12.429886 -n 12 -e 99.990895
N -t 12.429886 -n 9 -e 99.990895
s 12.430912273 _9_ RTR  --- 38 message 32 [0 0 0 0] [energy 99.990895 ei 0.009 es 0.000 et 0.000 er 0.000] ------- [9:255 -1:255 32 0] 
s 12.431349425 _0_ RTR  --- 39 message 32 [0 0 0 0] [energy 99.998891 ei 0.001 es 0.000 et 0.000 er 0.000] ------- [0:255 -1:255 32 0] 
r 12.431991385 _12_ RTR  --- 37 message 32 [0 ffffffff 4 800] [energy 99.990895 ei 0.009 es 0.000 et 0.000 er 0.000] ------- [4:255 -1:255 32 0] 
r 12.431991387 _9_ RTR  --- 37 message 32 [0 ffffffff 4 800] [energy 99.990895 ei 0.009 es 0.000 et 0.000 er 0.000] ------- [4:255 -1:255 32 0] 
N -t 12.432537 -n 4 -e 99.990887
N -t 12.432537 -n 12 -e 99.990843
N -t 12.432537 -n 24 -e 99.990843
N -t 12.432974 -n 12 -e 99.990828
r 12.434642303 _4_ RTR  --- 38 message 32 [0 ffffffff 9 800] [energy 99.990887 ei 0.009 es 0.000 et 0.000 er 0.000] ------- [9:255 -1:255 32 0] 
r 12.434642326 _24_ RTR  --- 38 message 32 [0 ffffffff 9 800] [energy 99.990843 ei 0.009 es 0.000 et 0.000 er 0.000] ------- [9:255 -1:255 32 0] 
s 12.664470430 _20_ RTR  --- 40 message 32 [0 0 0 0] [energy 99.991166 ei 0.009 es 0.000 et 0.000 er 0.000] ------- [20:255 -1:255 32 0] 
N -t 12.666415 -n 15 -e 99.990671
N -t 12.666415 -n 7 -e 99.990726
r 12.668520451 _15_ RTR  --- 40 message 32 [0 ffffffff 14 800] [energy 99.990671 ei 0.009 es 0.000 et 0.000 er 0.000] ------- [20:255 -1:255 32 0] 
r 12.668520471 _7_ RTR  --- 40 message 32 [0 ffffffff 14 800] [energy 99.990726 ei 0.009 es 0.000 et 0.000 er 0.000] ------- [20:255 -1:255 32 0] 
s 12.735285371 _22_ RTR  --- 41 message 44 [0 0 0 0] [energy 99.990883 ei 0.009 es 0.000 et 0.000 er 0.000] ------- [22:255 -1:255 32 0] 
N -t 12.736910 -n 2 -e 99.990613
N -t 12.736910 -n 14 -e 99.990712
N -t 12.736910 -n 24 -e 99.990563
N -t 12.736910 -n 11 -e 99.990662
r 12.739399402 _2_ RTR  --- 41 message 44 [0 ffffffff 16 800] [energy 99.990613 ei 0.009 es 0.000 et 0.000 er 0.000] ------- [22:255 -1:255 32 0] 
r 12.739399435 _14_ RTR  --- 41 message 44 [0 ffffffff 16 800] [energy 99.990712 ei 0.009 es 0.000 et 0.000 er 0.000] ------- [22:255 -1:255 32 0] 
r 12.739399436 _24_ RTR  --- 41 message 44 [0 ffffffff 16 800] [energy 99.990563 ei 0.009 es 0.000 et 0.000 er 0.000] ------- [22:255 -1:255 32 0] 
r 12.739399438 _11_ RTR  --- 41 message 44 [0 ffffffff 16 800] [energy 99.990662 ei 0.009 es 0.000 et 0.000 er 0.000] ------- [22:255 -1:255 32 0] 
s 12.790149477 _1_ RTR  --- 42 message 44 [0 0 0 0] [energy 99.991239 ei 0.009 es 0.000 et 0.000 er 0.000] ------- [1:255 -1:255 32 0] 
N -t 12.790495 -n 6 -e 99.990674
r 12.792983515 _6_ RTR  --- 42 message 44 [0 ffffffff 1 800] [energy 99.990674 ei 0.009 es 0.000 et 0.000 er 0.000] ------- [1:255 -1:255 32 0] 
s 12.926895427 _3_ RTR  --- 47 message 32 [0 0 0 0] [energy 99.991342 ei 0.008 es 0.000 et 0.000 er 0.000] ------- [3:255 -1:255 32 0] 
N -t 12.929480 -n 8 -e 99.990583
r 12.931585483 _8_ RTR  --- 47 message 32 [0 ffffffff 3 800] [energy 99.990583 ei 0.009 es 0.000 et 0.000 er 0.000] ------- [3:255 -1:255 32 0] 
s 13.000000000 _5_ AGT  --- 49 cbr 50 [0 0 0 0] [energy 99.991154 ei 0.009 es 0.000 et 0.000 er 0.000] ------- [5:0 0:0 32 0] [4] 0 0
r 13.000000000 _5_ RTR  --- 49 cbr 50 [0 0 0 0] [energy 99.991154 ei 0.009 es 0.000 et 0.000 er 0.000] ------- [5:0 0:0 32 0] [4] 0 0
s 13.072710730 _7_ RTR  --- 50 message 32 [0 0 0 0] [energy 99.990726 ei 0.009 es 0.000 et 0.000 er 0.000] ------- [7:255 -1:255 32 0] 
N -t 13.073056 -n 20 -e 99.990382
N -t 13.073056 -n 15 -e 99.990332
r 13.075160771 _20_ RTR  --- 50 message 32 [0 ffffffff 7 800] [energy 99.990382 ei 0.009 es 0.000 et 0.000 er 0.000] ------- [7:255 -1:255 32 0] 
r 13.075160791 _15_ RTR  --- 50 message 32 [0 ffffffff 7 800] [energy 99.990332 ei 0.009 es 0.000 et 0.000 er 0.000] ------- [7:255 -1:255 32 0] 
s 13.102845706 _24_ RTR  --- 52 message 32 [0 0 0 0] [energy 99.990563 ei 0.009 es 0.000 et 0.000 er 0.000] ------- [24:255 -1:255 32 0] 
N -t 13.103511 -n 2 -e 99.990302
N -t 13.103511 -n 9 -e 99.990310
N -t 13.103511 -n 22 -e 99.990243
r 13.105615753 _2_ RTR  --- 52 message 32 [0 ffffffff 18 800] [energy 99.990302 ei 0.009 es 0.000 et 0.000 er 0.000] ------- [24:255 -1:255 32 0] 
r 13.105615759 _9_ RTR  --- 52 message 32 [0 ffffffff 18 800] [energy 99.990310 ei 0.009 es 0.000 et 0.000 er 0.000] ------- [24:255 -1:255 32 0] 
r 13.105615771 _22_ RTR  --- 52 message 32 [0 ffffffff 18 800] [energy 99.990243 ei 0.009 es 0.000 et 0.000 er 0.000] ------- [24:255 -1:255 32 0] 
s 13.114380313 _15_ RTR  --- 53 message 56 [0 0 0 0] [energy 99.990332 ei 0.009 es 0.000 et 0.000 er 0.000] ------- [15:255 -1:255 32 0] 
N -t 13.116645 -n 20 -e 99.990274
N -t 13.116645 -n 18 -e 99.990428
N -t 13.116645 -n 7 -e 99.990274
r 13.119518334 _20_ RTR  --- 53 message 56 [0 ffffffff f 800] [energy 99.990274 ei 0.009 es 0.000 et 0.000 er 0.000] ------- [15:255 -1:255 32 0] 
r 13.119518368 _18_ RTR  --- 53 message 56 [0 ffffffff f 800] [energy 99.990428 ei 0.009 es 0.000 et 0.000 er 0.000] ------- [15:255 -1:255 32 0] 
r 13.119518373 _7_ RTR  --- 53 message 56 [0 ffffffff f 800] [energy 99.990274 ei 0.009 es 0.000 et 0.000 er 0.000] ------- [15:255 -1:255 32 0] 
s 13.123819677 _12_ RTR  --- 54 message 32 [0 0 0 0] [energy 99.990828 ei 0.009 es 0.000 et 0.000 er 0.000] ------- [12:255 -1:255 32 0] 
N -t 13.126405 -n 4 -e 99.990344
N -t 13.126405 -n 9 -e 99.990244
N -t 13.126405 -n 0 -e 99.990443
r 13.128509705 _4_ RTR  --- 54 message 32 [0 ffffffff c 800] [energy 99.990344 ei 0.009 es 0.000 et 0.000 er 0.000] ------- [12:255 -1:255 32 0] 
r 13.128509713 _9_ RTR  --- 54 message 32 [0 ffffffff c 800] [energy 99.990244 ei 0.009 es 0.000 et 0.000 er 0.000] ------- [12:255 -1:255 32 0] 
r 13.128509730 _0_ RTR  --- 54 message 32 [0 ffffffff c 800] [energy 99.990443 ei 0.009 es 0.000 et 0.000 er 0.000] ------- [12:255 -1:255 32 0] 
s 13.203815376 _21_ RTR  --- 55 message 44 [0 0 0 0] [energy 99.991000 ei 0.009 es 0.000 et 0.000 er 0.000] ------- [21:255 -1:255 32 0] 
N -t 13.204480 -n 10 -e 99.990175
N -t 13.204480 -n 5 -e 99.990379
N -t 13.204480 -n 16 -e 99.990180
r 13.206969417 _10_ RTR  --- 55 message 44 [0 ffffffff 15 800] [energy 99.990175 ei 0.009 es 0.000 et 0.000 er 0.000] ------- [21:255 -1:255 32 0] 
r 13.206969429 _5_ RTR  --- 55 message 44 [0 ffffffff 15 800] [energy 99.990379 ei 0.009 es 0.000 et 0.000 er 0.000] ------- [21:255 -1:255 32 0] 
r 13.206969442 _16_ RTR  --- 55 message 44 [0 ffffffff 15 800] [energy 99.990180 ei 0.009 es 0.000 et 0.000 er 0.000] ------- [21:255 -1:255 32 0] 
s 13.397160074 _10_ RTR  --- 57 message 44 [0 0 0 0] [energy 99.990175 ei 0.009 es 0.000 et 0.000 er 0.000] ------- [10:255 -1:255 32 0] 
N -t 13.399425 -n 16 -e 99.989978
N -t 13.399425 -n 13 -e 99.990136
N -t 13.399425 -n 21 -e 99.990019
r 13.401914101 _16_ RTR  --- 57 message 44 [0 ffffffff a 800] [energy 99.989978 ei 0.010 es 0.000 et 0.000 er 0.000] ------- [10:255 -1:255 32 0] 
r 13.401914112 _13_ RTR  --- 57 message 44 [0 ffffffff a 800] [energy 99.990136 ei 0.010 es 0.000 et 0.000 er 0.000] ------- [10:255 -1:255 32 0] 
r 13.401914115 _21_ RTR  --- 57 message 44 [0 ffffffff a 800] [energy 99.990019 ei 0.010 es 0.000 et 0.000 er 0.000] ------- [10:255 -1:255 32 0] 
s 13.404335637 _16_ RTR  --- 56 message 32 [0 0 0 0] [energy 99.989978 ei 0.010 es 0.000 et 0.000 er 0.000] ------- [16:255 -1:255 32 0] 
N -t 13.405001 -n 13 -e 99.990082
N -t 13.405001 -n 10 -e 99.989916
N -t 13.405001 -n 21 -e 99.989966
r 13.407105654 _13_ RTR  --- 56 message 32 [0 ffffffff 10 800] [energy 99.990082 ei 0.010 es 0.000 et 0.000 er 0.000] ------- [16:255 -1:255 32 0] 
r 13.407105664 _10_ RTR  --- 56 message 32 [0 ffffffff 10 800] [energy 99.989916 ei 0.010 es 0.000 et 0.000 er 0.000] ------- [16:255 -1:255 32 0] 
r 13.407105703 _21_ RTR  --- 56 message 32 [0 ffffffff 10 800] [energy 99.989966 ei 0.010 es 0.000 et 0.000 er 0.000] ------- [16:255 -1:255 32 0] 
s 13.429567458 _9_ RTR  --- 58 message 44 [0 0 0 0] [energy 99.990244 ei 0.009 es 0.000 et 0.000 er 0.000] ------- [9:255 -1:255 32 0] 
N -t 13.431192 -n 4 -e 99.990063
N -t 13.431192 -n 12 -e 99.989998
N -t 13.431193 -n 24 -e 99.989950
r 13.433681489 _4_ RTR  --- 58 message 44 [0 ffffffff 9 800] [energy 99.990063 ei 0.010 es 0.000 et 0.000 er 0.000] ------- [9:255 -1:255 32 0] 
r 13.433681494 _12_ RTR  --- 58 message 44 [0 ffffffff 9 800] [energy 99.989998 ei 0.010 es 0.000 et 0.000 er 0.000] ------- [9:255 -1:255 32 0] 
r 13.433681511 _24_ RTR  --- 58 message 44 [0 ffffffff 9 800] [energy 99.989950 ei 0.010 es 0.000 et 0.000 er 0.000] ------- [9:255 -1:255 32 0] 
s 13.477554997 _5_ RTR  --- 59 message 32 [0 0 0 0] [energy 99.990379 ei 0.009 es 0.000 et 0.000 er 0.000] ------- [5:255 -1:255 32 0] 
N -t 13.480140 -n 21 -e 99.989862
r 13.482245049 _21_ RTR  --- 59 message 32 [0 ffffffff 5 800] [energy 99.989862 ei 0.010 es 0.000 et 0.000 er 0.000] ------- [5:255 -1:255 32 0] 
s 13.527474134 _23_ RTR  --- 60 message 32 [0 0 0 0] [energy 99.999815 ei 0.000 es 0.000 et 0.000 er 0.000] ------- [23:255 -1:255 32 0] 
s 13.554287862 _2_ RTR  --- 61 message 32 [0 0 0 0] [energy 99.990302 ei 0.009 es 0.000 et 0.000 er 0.000] ------- [2:255 -1:255 32 0] 
N -t 13.554633 -n 22 -e 99.989872
N -t 13.554633 -n 24 -e 99.989813
N -t 13.554633 -n 11 -e 99.990031
r 13.556737893 _22_ RTR  --- 61 message 32 [0 ffffffff 2 800] [energy 99.989872 ei 0.010 es 0.000 et 0.000 er 0.000] ------- [2:255 -1:255 32 0] 
r 13.556737908 _24_ RTR  --- 61 message 32 [0 ffffffff 2 800] [energy 99.989813 ei 0.010 es 0.000 et 0.000 er 0.000] ------- [2:255 -1:255 32 0] 
r 13.556737915 _11_ RTR  --- 61 message 32 [0 ffffffff 2 800] [energy 99.990031 ei 0.010 es 0.000 et 0.000 er 0.000] ------- [2:255 -1:255 32 0] 
s 13.585748321 _4_ RTR  --- 62 message 44 [0 0 0 0] [energy 99.990063 ei 0.010 es 0.000 et 0.000 er 0.000] ------- [4:255 -1:255 32 0] 
N -t 13.587053 -n 12 -e 99.989824
N -t 13.587053 -n 9 -e 99.989786
r 13.589542349 _12_ RTR  --- 62 message 44 [0 ffffffff 4 800] [energy 99.989824 ei 0.010 es 0.000 et 0.000 er 0.000] ------- [4:255 -1:255 32 0] 
r 13.589542351 _9_ RTR  --- 62 message 44 [0 ffffffff 4 800] [energy 99.989786 ei 0.010 es 0.000 et 0.000 er 0.000] ------- [4:255 -1:255 32 0] 
s 13.608151174 _21_ RTR  --- 63 message 56 [0 0 0 0] [energy 99.989862 ei 0.010 es 0.000 et 0.000 er 0.000] ------- [21:255 -1:255 32 0] 
N -t 13.610096 -n 10 -e 99.989693
N -t 13.610096 -n 5 -e 99.989959
N -t 13.610096 -n 16 -e 99.989697
r 13.612969215 _10_ RTR  --- 63 message 56 [0 ffffffff 15 800] [energy 99.989693 ei 0.010 es 0.000 et 0.000 er 0.000] ------- [21:255 -1:255 32 0] 
r 13.612969227 _5_ RTR  --- 63 message 56 [0 ffffffff 15 800] [energy 99.989959 ei 0.010 es 0.000 et 0.000 er 0.000] ------- [21:255 -1:255 32 0] 
r 13.612969241 _16_ RTR  --- 63 message 56 [0 ffffffff 15 800] [energy 99.989697 ei 0.010 es 0.000 et 0.000 er 0.001] ------- [21:255 -1:255 32 0] 
s 13.660192621 _14_ RTR  --- 64 message 32 [0 0 0 0] [energy 99.990712 ei 0.009 es 0.000 et 0.000 er 0.000] ------- [14:255 -1:255 32 0] 
N -t 13.661818 -n 22 -e 99.989746
r 13.663922685 _22_ RTR  --- 64 message 32 [0 ffffffff e 800] [energy 99.989746 ei 0.010 es 0.000 et 0.000 er 0.000] ------- [14:255 -1:255 32 0] 
s 13.738837702 _22_ RTR  --- 65 message 32 [0 0 0 0] [energy 99.989746 ei 0.010 es 0.000 et 0.000 er 0.000] ------- [22:255 -1:255 32 0] 
N -t 13.739823 -n 2 -e 99.989744
N -t 13.739823 -n 14 -e 99.989894
N -t 13.739823 -n 24 -e 99.989631
N -t 13.739823 -n 11 -e 99.989849
r 13.741927733 _2_ RTR  --- 65 message 32 [0 ffffffff 16 800] [energy 99.989744 ei 0.010 es 0.000 et 0.000 er 0.000] ------- [22:255 -1:255 32 0] 
r 13.741927766 _14_ RTR  --- 65 message 32 [0 ffffffff 16 800] [energy 99.989894 ei 0.010 es 0.000 et 0.000 er 0.000] ------- [22:255 -1:255 32 0] 
r 13.741927767 _24_ RTR  --- 65 message 32 [0 ffffffff 16 800] [energy 99.989631 ei 0.010 es 0.000 et 0.000 er 0.001] ------- [22:255 -1:255 32 0] 
r 13.741927768 _11_ RTR  --- 65 message 32 [0 ffffffff 16 800] [energy 99.989849 ei 0.010 es 0.000 et 0.000 er 0.000] ------- [22:255 -1:255 32 0] 
s 13.765756269 _11_ RTR  --- 66 message 32 [0 0 0 0] [energy 99.989849 ei 0.010 es 0.000 et 0.000 er 0.000] ------- [11:255 -1:255 32 0] 
N -t 13.767061 -n 2 -e 99.989675
N -t 13.767061 -n 22 -e 99.989566
r 13.769166322 _2_ RTR  --- 66 message 32 [0 ffffffff b 800] [energy 99.989675 ei 0.010 es 0.000 et 0.000 er 0.000] ------- [11:255 -1:255 32 0] 
r 13.769166335 _22_ RTR  --- 66 message 32 [0 ffffffff b 800] [energy 99.989566 ei 0.010 es 0.000 et 0.000 er 0.000] ------- [11:255 -1:255 32 0] 
s 13.774004594 _15_ RTR  --- 67 message 68 [0 0 0 0] [energy 99.990222 ei 0.009 es 0.000 et 0.000 er 0.000] ------- [15:255 -1:255 32 0] 
N -t 13.776590 -n 20 -e 99.989714
N -t 13.776590 -n 18 -e 99.989869
N -t 13.776590 -n 7 -e 99.989714
r 13.779846615 _20_ RTR  --- 67 message 68 [0 ffffffff f 800] [energy 99.989714 ei 0.010 es 0.000 et 0.000 er 0.000] ------- [15:255 -1:255 32 0] 
r 13.779846650 _18_ RTR  --- 67 message 68 [0 ffffffff f 800] [energy 99.989869 ei 0.010 es 0.000 et 0.000 er 0.000] ------- [15:255 -1:255 32 0] 