M 0.0 nn 3 x 670 y 670 rp  DSDV
M 0.0 sc ../../../ns-2.35/tcl/mobility/scene/scen-3-test cp none seed 0.0
M 0.0 prop Propagation/TwoRayGround ant Antenna/OmniAntenna
M 33.00000 4194305 (83.36, 239.44, 0.00), (89.66, 283.49), 19.15
M 50.00000 4194307 (591.26, 199.37, 0.00), (369.46, 170.52), 3.37
M 51.00000 4194306 (257.05, 345.36, 0.00), (221.83, 80.86), 14.91
s 160.000000000 _3_ AGT  --- 64 tcp 40 [0 0 0 0] ------- [4194305:0 0:0 32 0] [0 0] 0 0
+ 160.010837 2 1 tcp 60 ------- 2 1.0.1.0 0.0.0.0 0 64
- 160.010837 2 1 tcp 60 ------- 2 1.0.1.0 0.0.0.0 0 64
r 160.012933 2 1 tcp 60 ------- 2 1.0.1.0 0.0.0.0 0 64
+ 160.012933 1 0 tcp 60 ------- 2 1.0.1.0 0.0.0.0 0 64
- 160.012933 1 0 tcp 60 ------- 2 1.0.1.0 0.0.0.0 0 64
r 160.015029 1 0 tcp 60 ------- 2 1.0.1.0 0.0.0.0 0 64
+ 160.015029 0 1 ack 40 ------- 2 0.0.0.0 1.0.1.0 0 65
- 160.015029 0 1 ack 40 ------- 2 0.0.0.0 1.0.1.0 0 65
r 160.017093 0 1 ack 40 ------- 2 0.0.0.0 1.0.1.0 0 65
+ 160.017093 1 2 ack 40 ------- 2 0.0.0.0 1.0.1.0 0 65
- 160.017093 1 2 ack 40 ------- 2 0.0.0.0 1.0.1.0 0 65
r 160.019157 1 2 ack 40 ------- 2 0.0.0.0 1.0.1.0 0 65
r 160.023545880 _3_ AGT  --- 65 ack 40 [13a 1 2 800] ------- [0:0 4194305:0 28 4194305] [0 0] 2 0
s 160.023545880 _3_ AGT  --- 66 tcp 1040 [0 0 0 0] ------- [4194305:0 0:0 32 0] [1 0] 0 0
s 160.023545880 _3_ AGT  --- 67 tcp 1040 [0 0 0 0] ------- [4194305:0 0:0 32 0] [2 0] 0 0
+ 160.053906 2 1 tcp 1060 ------- 2 1.0.1.0 0.0.0.0 1 66
- 160.053906 2 1 tcp 1060 ------- 2 1.0.1.0 0.0.0.0 1 66
r 160.057602 2 1 tcp 1060 ------- 2 1.0.1.0 0.0.0.0 1 66
+ 160.057602 1 0 tcp 1060 ------- 2 1.0.1.0 0.0.0.0 1 66
- 160.057602 1 0 tcp 1060 ------- 2 1.0.1.0 0.0.0.0 1 66
r 160.061298 1 0 tcp 1060 ------- 2 1.0.1.0 0.0.0.0 1 66
+ 160.061298 0 1 ack 40 ------- 2 0.0.0.0 1.0.1.0 1 68
- 160.061298 0 1 ack 40 ------- 2 0.0.0.0 1.0.1.0 1 68
r 160.063362 0 1 ack 40 ------- 2 0.0.0.0 1.0.1.0 1 68
+ 160.063362 1 2 ack 40 ------- 2 0.0.0.0 1.0.1.0 1 68
- 160.063362 1 2 ack 40 ------- 2 0.0.0.0 1.0.1.0 1 68
+ 160.064373 2 1 tcp 1060 ------- 2 1.0.1.0 0.0.0.0 2 67
- 160.064373 2 1 tcp 1060 ------- 2 1.0.1.0 0.0.0.0 2 67
r 160.065426 1 2 ack 40 ------- 2 0.0.0.0 1.0.1.0 1 68
r 160.068069 2 1 tcp 1060 ------- 2 1.0.1.0 0.0.0.0 2 67
+ 160.068069 1 0 tcp 1060 ------- 2 1.0.1.0 0.0.0.0 2 67
- 160.068069 1 0 tcp 1060 ------- 2 1.0.1.0 0.0.0.0 2 67
r 160.068954634 _3_ AGT  --- 68 ack 40 [13a 1 2 800] ------- [0:0 4194305:0 28 4194305] [1 0] 2 0
s 160.068954634 _3_ AGT  --- 69 tcp 1040 [0 0 0 0] ------- [4194305:0 0:0 32 0] [3 0] 0 0
s 160.068954634 _3_ AGT  --- 70 tcp 1040 [0 0 0 0] ------- [4194305:0 0:0 32 0] [4 0] 0 0
r 160.071765 1 0 tcp 1060 ------- 2 1.0.1.0 0.0.0.0 2 67
+ 160.071765 0 1 ack 40 ------- 2 0.0.0.0 1.0.1.0 2 71
- 160.071765 0 1 ack 40 ------- 2 0.0.0.0 1.0.1.0 2 71
r 160.073829 0 1 ack 40 ------- 2 0.0.0.0 1.0.1.0 2 71
+ 160.073829 1 2 ack 40 ------- 2 0.0.0.0 1.0.1.0 2 71
- 160.073829 1 2 ack 40 ------- 2 0.0.0.0 1.0.1.0 2 71
r 160.075893 1 2 ack 40 ------- 2 0.0.0.0 1.0.1.0 2 71
+ 160.099255 2 1 tcp 1060 ------- 2 1.0.1.0 0.0.0.0 3 69
- 160.099255 2 1 tcp 1060 ------- 2 1.0.1.0 0.0.0.0 3 69
r 160.102951 2 1 tcp 1060 ------- 2 1.0.1.0 0.0.0.0 3 69
+ 160.102951 1 0 tcp 1060 ------- 2 1.0.1.0 0.0.0.0 3 69
- 160.102951 1 0 tcp 1060 ------- 2 1.0.1.0 0.0.0.0 3 69
r 160.106647 1 0 tcp 1060 ------- 2 1.0.1.0 0.0.0.0 3 69
+ 160.106647 0 1 ack 40 ------- 2 0.0.0.0 1.0.1.0 3 72
- 160.106647 0 1 ack 40 ------- 2 0.0.0.0 1.0.1.0 3 72
r 160.108711 0 1 ack 40 ------- 2 0.0.0.0 1.0.1.0 3 72
+ 160.108711 1 2 ack 40 ------- 2 0.0.0.0 1.0.1.0 3 72
- 160.108711 1 2 ack 40 ------- 2 0.0.0.0 1.0.1.0 3 72
r 160.110775 1 2 ack 40 ------- 2 0.0.0.0 1.0.1.0 3 72
+ 160.111267 2 1 tcp 1060 ------- 2 1.0.1.0 0.0.0.0 4 70
- 160.111267 2 1 tcp 1060 ------- 2 1.0.1.0 0.0.0.0 4 70
r 160.114963 2 1 tcp 1060 ------- 2 1.0.1.0 0.0.0.0 4 70
+ 160.114963 1 0 tcp 1060 ------- 2 1.0.1.0 0.0.0.0 4 70
- 160.114963 1 0 tcp 1060 ------- 2 1.0.1.0 0.0.0.0 4 70
r 160.115140078 _3_ AGT  --- 71 ack 40 [13a 1 2 800] ------- [0:0 4194305:0 28 4194305] [2 0] 2 0
s 160.115140078 _3_ AGT  --- 73 tcp 1040 [0 0 0 0] ------- [4194305:0 0:0 32 0] [5 0] 0 0
s 160.115140078 _3_ AGT  --- 74 tcp 1040 [0 0 0 0] ------- [4194305:0 0:0 32 0] [6 0] 0 0
r 160.118659 1 0 tcp 1060 ------- 2 1.0.1.0 0.0.0.0 4 70
+ 160.118659 0 1 ack 40 ------- 2 0.0.0.0 1.0.1.0 4 75
- 160.118659 0 1 ack 40 ------- 2 0.0.0.0 1.0.1.0 4 75
r 160.120723 0 1 ack 40 ------- 2 0.0.0.0 1.0.1.0 4 75
+ 160.120723 1 2 ack 40 ------- 2 0.0.0.0 1.0.1.0 4 75
- 160.120723 1 2 ack 40 ------- 2 0.0.0.0 1.0.1.0 4 75
r 160.122787 1 2 ack 40 ------- 2 0.0.0.0 1.0.1.0 4 75
r 160.127292917 _3_ AGT  --- 72 ack 40 [13a 1 2 800] ------- [0:0 4194305:0 28 4194305] [3 0] 2 0
s 160.127292917 _3_ AGT  --- 76 tcp 1040 [0 0 0 0] ------- [4194305:0 0:0 32 0] [7 0] 0 0
s 160.127292917 _3_ AGT  --- 77 tcp 1040 [0 0 0 0] ------- [4194305:0 0:0 32 0] [8 0] 0 0
+ 160.147566 2 1 tcp 1060 ------- 2 1.0.1.0 0.0.0.0 5 73
- 160.147566 2 1 tcp 1060 ------- 2 1.0.1.0 0.0.0.0 5 73
r 160.151262 2 1 tcp 1060 ------- 2 1.0.1.0 0.0.0.0 5 73
+ 160.151262 1 0 tcp 1060 ------- 2 1.0.1.0 0.0.0.0 5 73
- 160.151262 1 0 tcp 1060 ------- 2 1.0.1.0 0.0.0.0 5 73
r 160.154958 1 0 tcp 1060 ------- 2 1.0.1.0 0.0.0.0 5 73
+ 160.154958 0 1 ack 40 ------- 2 0.0.0.0 1.0.1.0 5 78
- 160.154958 0 1 ack 40 ------- 2 0.0.0.0 1.0.1.0 5 78
r 160.157022 0 1 ack 40 ------- 2 0.0.0.0 1.0.1.0 5 78
+ 160.157022 1 2 ack 40 ------- 2 0.0.0.0 1.0.1.0 5 78
- 160.157022 1 2 ack 40 ------- 2 0.0.0.0 1.0.1.0 5 78
r 160.159086 1 2 ack 40 ------- 2 0.0.0.0 1.0.1.0 5 78
+ 160.159758 2 1 tcp 1060 ------- 2 1.0.1.0 0.0.0.0 6 74
- 160.159758 2 1 tcp 1060 ------- 2 1.0.1.0 0.0.0.0 6 74
r 160.161785571 _3_ AGT  --- 75 ack 40 [13a 1 2 800] ------- [0:0 4194305:0 28 4194305] [4 0] 2 0
s 160.161785571 _3_ AGT  --- 79 tcp 1040 [0 0 0 0] ------- [4194305:0 0:0 32 0] [9 0] 0 0
s 160.161785571 _3_ AGT  --- 80 tcp 1040 [0 0 0 0] ------- [4194305:0 0:0 32 0] [10 0] 0 0
r 160.163454 2 1 tcp 1060 ------- 2 1.0.1.0 0.0.0.0 6 74
+ 160.163454 1 0 tcp 1060 ------- 2 1.0.1.0 0.0.0.0 6 74
- 160.163454 1 0 tcp 1060 ------- 2 1.0.1.0 0.0.0.0 6 74
r 160.16715 1 0 tcp 1060 ------- 2 1.0.1.0 0.0.0.0 6 74
+ 160.16715 0 1 ack 40 ------- 2 0.0.0.0 1.0.1.0 6 81
- 160.16715 0 1 ack 40 ------- 2 0.0.0.0 1.0.1.0 6 81
r 160.169214 0 1 ack 40 ------- 2 0.0.0.0 1.0.1.0 6 81
+ 160.169214 1 2 ack 40 ------- 2 0.0.0.0 1.0.1.0 6 81
- 160.169214 1 2 ack 40 ------- 2 0.0.0.0 1.0.1.0 6 81
r 160.171278 1 2 ack 40 ------- 2 0.0.0.0 1.0.1.0 6 81
+ 160.202253 2 1 tcp 1060 ------- 2 1.0.1.0 0.0.0.0 7 76
- 160.202253 2 1 tcp 1060 ------- 2 1.0.1.0 0.0.0.0 7 76
r 160.205949 2 1 tcp 1060 ------- 2 1.0.1.0 0.0.0.0 7 76
+ 160.205949 1 0 tcp 1060 ------- 2 1.0.1.0 0.0.0.0 7 76
- 160.205949 1 0 tcp 1060 ------- 2 1.0.1.0 0.0.0.0 7 76
r 160.209645 1 0 tcp 1060 ------- 2 1.0.1.0 0.0.0.0 7 76
+ 160.209645 0 1 ack 40 ------- 2 0.0.0.0 1.0.1.0 7 82
- 160.209645 0 1 ack 40 ------- 2 0.0.0.0 1.0.1.0 7 82
r 160.211709 0 1 ack 40 ------- 2 0.0.0.0 1.0.1.0 7 82
+ 160.211709 1 2 ack 40 ------- 2 0.0.0.0 1.0.1.0 7 82
- 160.211709 1 2 ack 40 ------- 2 0.0.0.0 1.0.1.0 7 82
r 160.213773 1 2 ack 40 ------- 2 0.0.0.0 1.0.1.0 7 82
+ 160.224422 2 1 tcp 1060 ------- 2 1.0.1.0 0.0.0.0 8 77
- 160.224422 2 1 tcp 1060 ------- 2 1.0.1.0 0.0.0.0 8 77
r 160.228118 2 1 tcp 1060 ------- 2 1.0.1.0 0.0.0.0 8 77
+ 160.228118 1 0 tcp 1060 ------- 2 1.0.1.0 0.0.0.0 8 77
- 160.228118 1 0 tcp 1060 ------- 2 1.0.1.0 0.0.0.0 8 77
r 160.231814 1 0 tcp 1060 ------- 2 1.0.1.0 0.0.0.0 8 77
+ 160.231814 0 1 ack 40 ------- 2 0.0.0.0 1.0.1.0 8 83
- 160.231814 0 1 ack 40 ------- 2 0.0.0.0 1.0.1.0 8 83
r 160.233878 0 1 ack 40 ------- 2 0.0.0.0 1.0.1.0 8 83
+ 160.233878 1 2 ack 40 ------- 2 0.0.0.0 1.0.1.0 8 83
- 160.233878 1 2 ack 40 ------- 2 0.0.0.0 1.0.1.0 8 83
r 160.235942 1 2 ack 40 ------- 2 0.0.0.0 1.0.1.0 8 83
+ 160.238622 2 1 tcp 1060 ------- 2 1.0.1.0 0.0.0.0 9 79
- 160.238622 2 1 tcp 1060 ------- 2 1.0.1.0 0.0.0.0 9 79
r 160.242318 2 1 tcp 1060 ------- 2 1.0.1.0 0.0.0.0 9 79
+ 160.242318 1 0 tcp 1060 ------- 2 1.0.1.0 0.0.0.0 9 79
- 160.242318 1 0 tcp 1060 ------- 2 1.0.1.0 0.0.0.0 9 79
r 160.242874678 _3_ AGT  --- 78 ack 40 [13a 1 2 800] ------- [0:0 4194305:0 28 4194305] [5 0] 2 0
s 160.242874678 _3_ AGT  --- 84 tcp 1040 [0 0 0 0] ------- [4194305:0 0:0 32 0] [11 0] 0 0
s 160.242874678 _3_ AGT  --- 85 tcp 1040 [0 0 0 0] ------- [4194305:0 0:0 32 0] [12 0] 0 0
r 160.246014 1 0 tcp 1060 ------- 2 1.0.1.0 0.0.0.0 9 79
+ 160.246014 0 1 ack 40 ------- 2 0.0.0.0 1.0.1.0 9 86
- 160.246014 0 1 ack 40 ------- 2 0.0.0.0 1.0.1.0 9 86
r 160.248078 0 1 ack 40 ------- 2 0.0.0.0 1.0.1.0 9 86
+ 160.248078 1 2 ack 40 ------- 2 0.0.0.0 1.0.1.0 9 86
- 160.248078 1 2 ack 40 ------- 2 0.0.0.0 1.0.1.0 9 86
r 160.250142 1 2 ack 40 ------- 2 0.0.0.0 1.0.1.0 9 86
+ 160.253202 2 1 tcp 1060 ------- 2 1.0.1.0 0.0.0.0 10 80
- 160.253202 2 1 tcp 1060 ------- 2 1.0.1.0 0.0.0.0 10 80
r 160.255269030 _3_ AGT  --- 81 ack 40 [13a 1 2 800] ------- [0:0 4194305:0 28 4194305] [6 0] 2 0
s 160.255269030 _3_ AGT  --- 87 tcp 1040 [0 0 0 0] ------- [4194305:0 0:0 32 0] [13 0] 0 0
s 160.255269030 _3_ AGT  --- 88 tcp 1040 [0 0 0 0] ------- [4194305:0 0:0 32 0] [14 0] 0 0
r 160.256898 2 1 tcp 1060 ------- 2 1.0.1.0 0.0.0.0 10 80
+ 160.256898 1 0 tcp 1060 ------- 2 1.0.1.0 0.0.0.0 10 80
- 160.256898 1 0 tcp 1060 ------- 2 1.0.1.0 0.0.0.0 10 80
r 160.260594 1 0 tcp 1060 ------- 2 1.0.1.0 0.0.0.0 10 80
+ 160.260594 0 1 ack 40 ------- 2 0.0.0.0 1.0.1.0 10 89
- 160.260594 0 1 ack 40 ------- 2 0.0.0.0 1.0.1.0 10 89
r 160.262658 0 1 ack 40 ------- 2 0.0.0.0 1.0.1.0 10 89
+ 160.262658 1 2 ack 40 ------- 2 0.0.0.0 1.0.1.0 10 89
- 160.262658 1 2 ack 40 ------- 2 0.0.0.0 1.0.1.0 10 89
r 160.264722 1 2 ack 40 ------- 2 0.0.0.0 1.0.1.0 10 89
r 160.269518391 _3_ AGT  --- 82 ack 40 [13a 1 2 800] ------- [0:0 4194305:0 28 4194305] [7 0] 2 0
s 160.269518391 _3_ AGT  --- 90 tcp 1040 [0 0 0 0] ------- [4194305:0 0:0 32 0] [15 0] 0 0
s 160.269518391 _3_ AGT  --- 91 tcp 1040 [0 0 0 0] ------- [4194305:0 0:0 32 0] [16 0] 0 0
r 160.301545681 _3_ AGT  --- 83 ack 40 [13a 1 2 800] ------- [0:0 4194305:0 28 4194305] [8 0] 2 0
s 160.301545681 _3_ AGT  --- 92 tcp 1040 [0 0 0 0] ------- [4194305:0 0:0 32 0] [17 0] 0 0
s 160.301545681 _3_ AGT  --- 93 tcp 1040 [0 0 0 0] ------- [4194305:0 0:0 32 0] [18 0] 0 0
+ 160.311533 2 1 tcp 1060 ------- 2 1.0.1.0 0.0.0.0 11 84
- 160.311533 2 1 tcp 1060 ------- 2 1.0.1.0 0.0.0.0 11 84
r 160.315229 2 1 tcp 1060 ------- 2 1.0.1.0 0.0.0.0 11 84
+ 160.315229 1 0 tcp 1060 ------- 2 1.0.1.0 0.0.0.0 11 84
- 160.315229 1 0 tcp 1060 ------- 2 1.0.1.0 0.0.0.0 11 84
r 160.318925 1 0 tcp 1060 ------- 2 1.0.1.0 0.0.0.0 11 84
+ 160.318925 0 1 ack 40 ------- 2 0.0.0.0 1.0.1.0 11 94
- 160.318925 0 1 ack 40 ------- 2 0.0.0.0 1.0.1.0 11 94
r 160.320989 0 1 ack 40 ------- 2 0.0.0.0 1.0.1.0 11 94
+ 160.320989 1 2 ack 40 ------- 2 0.0.0.0 1.0.1.0 11 94
- 160.320989 1 2 ack 40 ------- 2 0.0.0.0 1.0.1.0 11 94
r 160.323053 1 2 ack 40 ------- 2 0.0.0.0 1.0.1.0 11 94
r 160.325742218 _3_ AGT  --- 86 ack 40 [13a 1 2 800] ------- [0:0 4194305:0 28 4194305] [9 0] 2 0
s 160.325742218 _3_ AGT  --- 95 tcp 1040 [0 0 0 0] ------- [4194305:0 0:0 32 0] [19 0] 0 0
s 160.325742218 _3_ AGT  --- 96 tcp 1040 [0 0 0 0] ------- [4194305:0 0:0 32 0] [20 0] 0 0
+ 160.346055 2 1 tcp 1060 ------- 2 1.0.1.0 0.0.0.0 12 85
- 160.346055 2 1 tcp 1060 ------- 2 1.0.1.0 0.0.0.0 12 85
r 160.349751 2 1 tcp 1060 ------- 2 1.0.1.0 0.0.0.0 12 85
+ 160.349751 1 0 tcp 1060 ------- 2 1.0.1.0 0.0.0.0 12 85
- 160.349751 1 0 tcp 1060 ------- 2 1.0.1.0 0.0.0.0 12 85
r 160.353447 1 0 tcp 1060 ------- 2 1.0.1.0 0.0.0.0 12 85
+ 160.353447 0 1 ack 40 ------- 2 0.0.0.0 1.0.1.0 12 97
- 160.353447 0 1 ack 40 ------- 2 0.0.0.0 1.0.1.0 12 97
r 160.355511 0 1 ack 40 ------- 2 0.0.0.0 1.0.1.0 12 97
+ 160.355511 1 2 ack 40 ------- 2 0.0.0.0 1.0.1.0 12 97
- 160.355511 1 2 ack 40 ------- 2 0.0.0.0 1.0.1.0 12 97
+ 160.356042 2 1 tcp 1060 ------- 2 1.0.1.0 0.0.0.0 13 87
- 160.356042 2 1 tcp 1060 ------- 2 1.0.1.0 0.0.0.0 13 87
r 160.357575 1 2 ack 40 ------- 2 0.0.0.0 1.0.1.0 12 97
r 160.359738 2 1 tcp 1060 ------- 2 1.0.1.0 0.0.0.0 13 87
+ 160.359738 1 0 tcp 1060 ------- 2 1.0.1.0 0.0.0.0 13 87
- 160.359738 1 0 tcp 1060 ------- 2 1.0.1.0 0.0.0.0 13 87
r 160.363434 1 0 tcp 1060 ------- 2 1.0.1.0 0.0.0.0 13 87
+ 160.363434 0 1 ack 40 ------- 2 0.0.0.0 1.0.1.0 13 98
- 160.363434 0 1 ack 40 ------- 2 0.0.0.0 1.0.1.0 13 98
r 160.365498 0 1 ack 40 ------- 2 0.0.0.0 1.0.1.0 13 98
+ 160.365498 1 2 ack 40 ------- 2 0.0.0.0 1.0.1.0 13 98
- 160.365498 1 2 ack 40 ------- 2 0.0.0.0 1.0.1.0 13 98
r 160.367562 1 2 ack 40 ------- 2 0.0.0.0 1.0.1.0 13 98
+ 160.378251 2 1 tcp 1060 ------- 2 1.0.1.0 0.0.0.0 14 88
- 160.378251 2 1 tcp 1060 ------- 2 1.0.1.0 0.0.0.0 14 88
r 160.381947 2 1 tcp 1060 ------- 2 1.0.1.0 0.0.0.0 14 88
+ 160.381947 1 0 tcp 1060 ------- 2 1.0.1.0 0.0.0.0 14 88
- 160.381947 1 0 tcp 1060 ------- 2 1.0.1.0 0.0.0.0 14 88
r 160.385643 1 0 tcp 1060 ------- 2 1.0.1.0 0.0.0.0 14 88
+ 160.385643 0 1 ack 40 ------- 2 0.0.0.0 1.0.1.0 14 99
- 160.385643 0 1 ack 40 ------- 2 0.0.0.0 1.0.1.0 14 99
r 160.387707 0 1 ack 40 ------- 2 0.0.0.0 1.0.1.0 14 99
+ 160.387707 1 2 ack 40 ------- 2 0.0.0.0 1.0.1.0 14 99
- 160.387707 1 2 ack 40 ------- 2 0.0.0.0 1.0.1.0 14 99
r 160.389771 1 2 ack 40 ------- 2 0.0.0.0 1.0.1.0 14 99
r 160.394307932 _3_ AGT  --- 89 ack 40 [13a 1 2 800] ------- [0:0 4194305:0 28 4194305] [10 0] 2 0
s 160.394307932 _3_ AGT  --- 100 tcp 1040 [0 0 0 0] ------- [4194305:0 0:0 32 0] [21 0] 0 0
s 160.394307932 _3_ AGT  --- 101 tcp 1040 [0 0 0 0] ------- [4194305:0 0:0 32 0] [22 0] 0 0
+ 160.414781 2 1 tcp 1060 ------- 2 1.0.1.0 0.0.0.0 15 90
- 160.414781 2 1 tcp 1060 ------- 2 1.0.1.0 0.0.0.0 15 90
r 160.418477 2 1 tcp 1060 ------- 2 1.0.1.0 0.0.0.0 15 90
+ 160.418477 1 0 tcp 1060 ------- 2 1.0.1.0 0.0.0.0 15 90
- 160.418477 1 0 tcp 1060 ------- 2 1.0.1.0 0.0.0.0 15 90
r 160.422173 1 0 tcp 1060 ------- 2 1.0.1.0 0.0.0.0 15 90
+ 160.422173 0 1 ack 40 ------- 2 0.0.0.0 1.0.1.0 15 102
- 160.422173 0 1 ack 40 ------- 2 0.0.0.0 1.0.1.0 15 102
r 160.424237 0 1 ack 40 ------- 2 0.0.0.0 1.0.1.0 15 102
+ 160.424237 1 2 ack 40 ------- 2 0.0.0.0 1.0.1.0 15 102
- 160.424237 1 2 ack 40 ------- 2 0.0.0.0 1.0.1.0 15 102
r 160.426301 1 2 ack 40 ------- 2 0.0.0.0 1.0.1.0 15 102
+ 160.426853 2 1 tcp 1060 ------- 2 1.0.1.0 0.0.0.0 16 91
- 160.426853 2 1 tcp 1060 ------- 2 1.0.1.0 0.0.0.0 16 91
r 160.428720586 _3_ AGT  --- 94 ack 40 [13a 1 2 800] ------- [0:0 4194305:0 28 4194305] [11 0] 2 0
s 160.428720586 _3_ AGT  --- 103 tcp 1040 [0 0 0 0] ------- [4194305:0 0:0 32 0] [23 0] 0 0
s 160.428720586 _3_ AGT  --- 104 tcp 1040 [0 0 0 0] ------- [4194305:0 0:0 32 0] [24 0] 0 0
r 160.430549 2 1 tcp 1060 ------- 2 1.0.1.0 0.0.0.0 16 91
+ 160.430549 1 0 tcp 1060 ------- 2 1.0.1.0 0.0.0.0 16 91
- 160.430549 1 0 tcp 1060 ------- 2 1.0.1.0 0.0.0.0 16 91
r 160.434245 1 0 tcp 1060 ------- 2 1.0.1.0 0.0.0.0 16 91
+ 160.434245 0 1 ack 40 ------- 2 0.0.0.0 1.0.1.0 16 105
- 160.434245 0 1 ack 40 ------- 2 0.0.0.0 1.0.1.0 16 105
r 160.436309 0 1 ack 40 ------- 2 0.0.0.0 1.0.1.0 16 105
+ 160.436309 1 2 ack 40 ------- 2 0.0.0.0 1.0.1.0 16 105
- 160.436309 1 2 ack 40 ------- 2 0.0.0.0 1.0.1.0 16 105
r 160.438373 1 2 ack 40 ------- 2 0.0.0.0 1.0.1.0 16 105
+ 160.460957 2 1 tcp 1060 ------- 2 1.0.1.0 0.0.0.0 17 92
- 160.460957 2 1 tcp 1060 ------- 2 1.0.1.0 0.0.0.0 17 92
r 160.464653 2 1 tcp 1060 ------- 2 1.0.1.0 0.0.0.0 17 92
+ 160.464653 1 0 tcp 1060 ------- 2 1.0.1.0 0.0.0.0 17 92
- 160.464653 1 0 tcp 1060 ------- 2 1.0.1.0 0.0.0.0 17 92
r 160.464749863 _3_ AGT  --- 97 ack 40 [13a 1 2 800] ------- [0:0 4194305:0 28 4194305] [12 0] 2 0
s 160.464749863 _3_ AGT  --- 106 tcp 1040 [0 0 0 0] ------- [4194305:0 0:0 32 0] [25 0] 0 0
s 160.464749863 _3_ AGT  --- 107 tcp 1040 [0 0 0 0] ------- [4194305:0 0:0 32 0] [26 0] 0 0
r 160.466617088 _3_ AGT  --- 98 ack 40 [13a 1 2 800] ------- [0:0 4194305:0 28 4194305] [13 0] 2 0
s 160.466617088 _3_ AGT  --- 108 tcp 1040 [0 0 0 0] ------- [4194305:0 0:0 32 0] [27 0] 0 0
s 160.466617088 _3_ AGT  --- 109 tcp 1040 [0 0 0 0] ------- [4194305:0 0:0 32 0] [28 0] 0 0
r 160.468349 1 0 tcp 1060 ------- 2 1.0.1.0 0.0.0.0 17 92
+ 160.468349 0 1 ack 40 ------- 2 0.0.0.0 1.0.1.0 17 110
- 160.468349 0 1 ack 40 ------- 2 0.0.0.0 1.0.1.0 17 110
r 160.470413 0 1 ack 40 ------- 2 0.0.0.0 1.0.1.0 17 110
+ 160.470413 1 2 ack 40 ------- 2 0.0.0.0 1.0.1.0 17 110
- 160.470413 1 2 ack 40 ------- 2 0.0.0.0 1.0.1.0 17 110
r 160.472477 1 2 ack 40 ------- 2 0.0.0.0 1.0.1.0 17 110
+ 160.476644 2 1 tcp 1060 ------- 2 1.0.1.0 0.0.0.0 18 93
- 160.476644 2 1 tcp 1060 ------- 2 1.0.1.0 0.0.0.0 18 93
r 160.48034 2 1 tcp 1060 ------- 2 1.0.1.0 0.0.0.0 18 93
+ 160.48034 1 0 tcp 1060 ------- 2 1.0.1.0 0.0.0.0 18 93
- 160.48034 1 0 tcp 1060 ------- 2 1.0.1.0 0.0.0.0 18 93
r 160.484036 1 0 tcp 1060 ------- 2 1.0.1.0 0.0.0.0 18 93
+ 160.484036 0 1 ack 40 ------- 2 0.0.0.0 1.0.1.0 18 111
- 160.484036 0 1 ack 40 ------- 2 0.0.0.0 1.0.1.0 18 111
r 160.4861 0 1 ack 40 ------- 2 0.0.0.0 1.0.1.0 18 111
+ 160.4861 1 2 ack 40 ------- 2 0.0.0.0 1.0.1.0 18 111
- 160.4861 1 2 ack 40 ------- 2 0.0.0.0 1.0.1.0 18 111
+ 160.487071 2 1 tcp 1060 ------- 2 1.0.1.0 0.0.0.0 19 95
- 160.487071 2 1 tcp 1060 ------- 2 1.0.1.0 0.0.0.0 19 95
r 160.488164 1 2 ack 40 ------- 2 0.0.0.0 1.0.1.0 18 111
r 160.490767 2 1 tcp 1060 ------- 2 1.0.1.0 0.0.0.0 19 95
+ 160.490767 1 0 tcp 1060 ------- 2 1.0.1.0 0.0.0.0 19 95
- 160.490767 1 0 tcp 1060 ------- 2 1.0.1.0 0.0.0.0 19 95
r 160.494463 1 0 tcp 1060 ------- 2 1.0.1.0 0.0.0.0 19 95
+ 160.494463 0 1 ack 40 ------- 2 0.0.0.0 1.0.1.0 19 112
- 160.494463 0 1 ack 40 ------- 2 0.0.0.0 1.0.1.0 19 112
r 160.496527 0 1 ack 40 ------- 2 0.0.0.0 1.0.1.0 19 112
+ 160.496527 1 2 ack 40 ------- 2 0.0.0.0 1.0.1.0 19 112
- 160.496527 1 2 ack 40 ------- 2 0.0.0.0 1.0.1.0 19 112
r 160.498591 1 2 ack 40 ------- 2 0.0.0.0 1.0.1.0 19 112
r 160.503147878 _3_ AGT  --- 99 ack 40 [13a 1 2 800] ------- [0:0 4194305:0 28 4194305] [14 0] 2 0
s 160.503147878 _3_ AGT  --- 113 tcp 1040 [0 0 0 0] ------- [4194305:0 0:0 32 0] [29 0] 0 0
s 160.503147878 _3_ AGT  --- 114 tcp 1040 [0 0 0 0] ------- [4194305:0 0:0 32 0] [30 0] 0 0
+ 160.545352 2 1 tcp 1060 ------- 2 1.0.1.0 0.0.0.0 20 96
- 160.545352 2 1 tcp 1060 ------- 2 1.0.1.0 0.0.0.0 20 96
r 160.549048 2 1 tcp 1060 ------- 2 1.0.1.0 0.0.0.0 20 96
+ 160.549048 1 0 tcp 1060 ------- 2 1.0.1.0 0.0.0.0 20 96
- 160.549048 1 0 tcp 1060 ------- 2 1.0.1.0 0.0.0.0 20 96
r 160.552744 1 0 tcp 1060 ------- 2 1.0.1.0 0.0.0.0 20 96
+ 160.552744 0 1 ack 40 ------- 2 0.0.0.0 1.0.1.0 20 116
- 160.552744 0 1 ack 40 ------- 2 0.0.0.0 1.0.1.0 20 116
r 160.554808 0 1 ack 40 ------- 2 0.0.0.0 1.0.1.0 20 116
+ 160.554808 1 2 ack 40 ------- 2 0.0.0.0 1.0.1.0 20 116
- 160.554808 1 2 ack 40 ------- 2 0.0.0.0 1.0.1.0 20 116
r 160.556872 1 2 ack 40 ------- 2 0.0.0.0 1.0.1.0 20 116
+ 160.576779 2 1 tcp 1060 ------- 2 1.0.1.0 0.0.0.0 21 100
- 160.576779 2 1 tcp 1060 ------- 2 1.0.1.0 0.0.0.0 21 100
r 160.578686395 _3_ AGT  --- 102 ack 40 [13a 1 2 800] ------- [0:0 4194305:0 28 4194305] [15 0] 2 0
s 160.578686395 _3_ AGT  --- 117 tcp 1040 [0 0 0 0] ------- [4194305:0 0:0 32 0] [31 0] 0 0
s 160.578686395 _3_ AGT  --- 118 tcp 1040 [0 0 0 0] ------- [4194305:0 0:0 32 0] [32 0] 0 0
r 160.580475 2 1 tcp 1060 ------- 2 1.0.1.0 0.0.0.0 21 100
+ 160.580475 1 0 tcp 1060 ------- 2 1.0.1.0 0.0.0.0 21 100
- 160.580475 1 0 tcp 1060 ------- 2 1.0.1.0 0.0.0.0 21 100
r 160.580593620 _3_ AGT  --- 105 ack 40 [13a 1 2 800] ------- [0:0 4194305:0 28 4194305] [16 0] 2 0
s 160.580593620 _3_ AGT  --- 119 tcp 1040 [0 0 0 0] ------- [4194305:0 0:0 32 0] [33 0] 0 0
s 160.580593620 _3_ AGT  --- 120 tcp 1040 [0 0 0 0] ------- [4194305:0 0:0 32 0] [34 0] 0 0
r 160.584171 1 0 tcp 1060 ------- 2 1.0.1.0 0.0.0.0 21 100
+ 160.584171 0 1 ack 40 ------- 2 0.0.0.0 1.0.1.0 21 121
- 160.584171 0 1 ack 40 ------- 2 0.0.0.0 1.0.1.0 21 121
r 160.586235 0 1 ack 40 ------- 2 0.0.0.0 1.0.1.0 21 121
+ 160.586235 1 2 ack 40 ------- 2 0.0.0.0 1.0.1.0 21 121
- 160.586235 1 2 ack 40 ------- 2 0.0.0.0 1.0.1.0 21 121
r 160.588299 1 2 ack 40 ------- 2 0.0.0.0 1.0.1.0 21 121
r 160.604630207 _3_ AGT  --- 110 ack 40 [13a 1 2 800] ------- [0:0 4194305:0 28 4194305] [17 0] 2 0
s 160.604630207 _3_ AGT  --- 122 tcp 1040 [0 0 0 0] ------- [4194305:0 0:0 32 0] [35 0] 0 0
s 160.604630207 _3_ AGT  --- 123 tcp 1040 [0 0 0 0] ------- [4194305:0 0:0 32 0] [36 0] 0 0
r 160.638834019 _3_ AGT  --- 111 ack 40 [13a 1 2 800] ------- [0:0 4194305:0 28 4194305] [18 0] 2 0
s 160.638834019 _3_ AGT  --- 124 tcp 1040 [0 0 0 0] ------- [4194305:0 0:0 32 0] [37 0] 0 0
s 160.638834019 _3_ AGT  --- 125 tcp 1040 [0 0 0 0] ------- [4194305:0 0:0 32 0] [38 0] 0 0
+ 160.669394 2 1 tcp 1060 ------- 2 1.0.1.0 0.0.0.0 22 101
- 160.669394 2 1 tcp 1060 ------- 2 1.0.1.0 0.0.0.0 22 101
r 160.67309 2 1 tcp 1060 ------- 2 1.0.1.0 0.0.0.0 22 101
+ 160.67309 1 0 tcp 1060 ------- 2 1.0.1.0 0.0.0.0 22 101
- 160.67309 1 0 tcp 1060 ------- 2 1.0.1.0 0.0.0.0 22 101
r 160.676786 1 0 tcp 1060 ------- 2 1.0.1.0 0.0.0.0 22 101
+ 160.676786 0 1 ack 40 ------- 2 0.0.0.0 1.0.1.0 22 126
- 160.676786 0 1 ack 40 ------- 2 0.0.0.0 1.0.1.0 22 126
r 160.67885 0 1 ack 40 ------- 2 0.0.0.0 1.0.1.0 22 126
+ 160.67885 1 2 ack 40 ------- 2 0.0.0.0 1.0.1.0 22 126
- 160.67885 1 2 ack 40 ------- 2 0.0.0.0 1.0.1.0 22 126
r 160.680914 1 2 ack 40 ------- 2 0.0.0.0 1.0.1.0 22 126
+ 160.713069 2 1 tcp 1060 ------- 2 1.0.1.0 0.0.0.0 23 103
- 160.713069 2 1 tcp 1060 ------- 2 1.0.1.0 0.0.0.0 23 103
r 160.716765 2 1 tcp 1060 ------- 2 1.0.1.0 0.0.0.0 23 103
+ 160.716765 1 0 tcp 1060 ------- 2 1.0.1.0 0.0.0.0 23 103
- 160.716765 1 0 tcp 1060 ------- 2 1.0.1.0 0.0.0.0 23 103
r 160.720461 1 0 tcp 1060 ------- 2 1.0.1.0 0.0.0.0 23 103
+ 160.720461 0 1 ack 40 ------- 2 0.0.0.0 1.0.1.0 23 127
- 160.720461 0 1 ack 40 ------- 2 0.0.0.0 1.0.1.0 23 127
r 160.722525 0 1 ack 40 ------- 2 0.0.0.0 1.0.1.0 23 127
+ 160.722525 1 2 ack 40 ------- 2 0.0.0.0 1.0.1.0 23 127
- 160.722525 1 2 ack 40 ------- 2 0.0.0.0 1.0.1.0 23 127
r 160.724589 1 2 ack 40 ------- 2 0.0.0.0 1.0.1.0 23 127
+ 160.733646 2 1 tcp 1060 ------- 2 1.0.1.0 0.0.0.0 24 104
- 160.733646 2 1 tcp 1060 ------- 2 1.0.1.0 0.0.0.0 24 104
r 160.737342 2 1 tcp 1060 ------- 2 1.0.1.0 0.0.0.0 24 104
+ 160.737342 1 0 tcp 1060 ------- 2 1.0.1.0 0.0.0.0 24 104
- 160.737342 1 0 tcp 1060 ------- 2 1.0.1.0 0.0.0.0 24 104
r 160.741038 1 0 tcp 1060 ------- 2 1.0.1.0 0.0.0.0 24 104
+ 160.741038 0 1 ack 40 ------- 2 0.0.0.0 1.0.1.0 24 128
- 160.741038 0 1 ack 40 ------- 2 0.0.0.0 1.0.1.0 24 128
r 160.743102 0 1 ack 40 ------- 2 0.0.0.0 1.0.1.0 24 128
+ 160.743102 1 2 ack 40 ------- 2 0.0.0.0 1.0.1.0 24 128
- 160.743102 1 2 ack 40 ------- 2 0.0.0.0 1.0.1.0 24 128
r 160.745166 1 2 ack 40 ------- 2 0.0.0.0 1.0.1.0 24 128
+ 160.747727 2 1 tcp 1060 ------- 2 1.0.1.0 0.0.0.0 25 106
- 160.747727 2 1 tcp 1060 ------- 2 1.0.1.0 0.0.0.0 25 106
r 160.749593932 _3_ AGT  --- 112 ack 40 [13a 1 2 800] ------- [0:0 4194305:0 28 4194305] [19 0] 2 0
s 160.749593932 _3_ AGT  --- 129 tcp 1040 [0 0 0 0] ------- [4194305:0 0:0 32 0] [39 0] 0 0
r 160.751423 2 1 tcp 1060 ------- 2 1.0.1.0 0.0.0.0 25 106
+ 160.751423 1 0 tcp 1060 ------- 2 1.0.1.0 0.0.0.0 25 106
- 160.751423 1 0 tcp 1060 ------- 2 1.0.1.0 0.0.0.0 25 106
r 160.755119 1 0 tcp 1060 ------- 2 1.0.1.0 0.0.0.0 25 106
+ 160.755119 0 1 ack 40 ------- 2 0.0.0.0 1.0.1.0 25 130
- 160.755119 0 1 ack 40 ------- 2 0.0.0.0 1.0.1.0 25 130
r 160.757183 0 1 ack 40 ------- 2 0.0.0.0 1.0.1.0 25 130
+ 160.757183 1 2 ack 40 ------- 2 0.0.0.0 1.0.1.0 25 130
- 160.757183 1 2 ack 40 ------- 2 0.0.0.0 1.0.1.0 25 130
r 160.759247 1 2 ack 40 ------- 2 0.0.0.0 1.0.1.0 25 130
+ 160.759581 2 1 tcp 1060 ------- 2 1.0.1.0 0.0.0.0 26 107
- 160.759581 2 1 tcp 1060 ------- 2 1.0.1.0 0.0.0.0 26 107
r 160.763277 2 1 tcp 1060 ------- 2 1.0.1.0 0.0.0.0 26 107
+ 160.763277 1 0 tcp 1060 ------- 2 1.0.1.0 0.0.0.0 26 107
- 160.763277 1 0 tcp 1060 ------- 2 1.0.1.0 0.0.0.0 26 107
r 160.766973 1 0 tcp 1060 ------- 2 1.0.1.0 0.0.0.0 26 107
+ 160.766973 0 1 ack 40 ------- 2 0.0.0.0 1.0.1.0 26 131
- 160.766973 0 1 ack 40 ------- 2 0.0.0.0 1.0.1.0 26 131
r 160.769037 0 1 ack 40 ------- 2 0.0.0.0 1.0.1.0 26 131
+ 160.769037 1 2 ack 40 ------- 2 0.0.0.0 1.0.1.0 26 131
- 160.769037 1 2 ack 40 ------- 2 0.0.0.0 1.0.1.0 26 131
+ 160.769628 2 1 tcp 1060 ------- 2 1.0.1.0 0.0.0.0 27 108
- 160.769628 2 1 tcp 1060 ------- 2 1.0.1.0 0.0.0.0 27 108
r 160.771101 1 2 ack 40 ------- 2 0.0.0.0 1.0.1.0 26 131
r 160.773324 2 1 tcp 1060 ------- 2 1.0.1.0 0.0.0.0 27 108
+ 160.773324 1 0 tcp 1060 ------- 2 1.0.1.0 0.0.0.0 27 108
- 160.773324 1 0 tcp 1060 ------- 2 1.0.1.0 0.0.0.0 27 108
r 160.77702 1 0 tcp 1060 ------- 2 1.0.1.0 0.0.0.0 27 108
+ 160.77702 0 1 ack 40 ------- 2 0.0.0.0 1.0.1.0 27 132
- 160.77702 0 1 ack 40 ------- 2 0.0.0.0 1.0.1.0 27 132
r 160.779084 0 1 ack 40 ------- 2 0.0.0.0 1.0.1.0 27 132
+ 160.779084 1 2 ack 40 ------- 2 0.0.0.0 1.0.1.0 27 132
- 160.779084 1 2 ack 40 ------- 2 0.0.0.0 1.0.1.0 27 132
r 160.781148 1 2 ack 40 ------- 2 0.0.0.0 1.0.1.0 27 132
+ 160.781861 2 1 tcp 1060 ------- 2 1.0.1.0 0.0.0.0 28 109
- 160.781861 2 1 tcp 1060 ------- 2 1.0.1.0 0.0.0.0 28 109
r 160.785557 2 1 tcp 1060 ------- 2 1.0.1.0 0.0.0.0 28 109
+ 160.785557 1 0 tcp 1060 ------- 2 1.0.1.0 0.0.0.0 28 109
- 160.785557 1 0 tcp 1060 ------- 2 1.0.1.0 0.0.0.0 28 109
r 160.789253 1 0 tcp 1060 ------- 2 1.0.1.0 0.0.0.0 28 109
+ 160.789253 0 1 ack 40 ------- 2 0.0.0.0 1.0.1.0 28 133
- 160.789253 0 1 ack 40 ------- 2 0.0.0.0 1.0.1.0 28 133
r 160.791317 0 1 ack 40 ------- 2 0.0.0.0 1.0.1.0 28 133
+ 160.791317 1 2 ack 40 ------- 2 0.0.0.0 1.0.1.0 28 133
- 160.791317 1 2 ack 40 ------- 2 0.0.0.0 1.0.1.0 28 133
r 160.793381 1 2 ack 40 ------- 2 0.0.0.0 1.0.1.0 28 133
+ 160.794134 2 1 tcp 1060 ------- 2 1.0.1.0 0.0.0.0 29 113
- 160.794134 2 1 tcp 1060 ------- 2 1.0.1.0 0.0.0.0 29 113
r 160.79783 2 1 tcp 1060 ------- 2 1.0.1.0 0.0.0.0 29 113
+ 160.79783 1 0 tcp 1060 ------- 2 1.0.1.0 0.0.0.0 29 113
- 160.79783 1 0 tcp 1060 ------- 2 1.0.1.0 0.0.0.0 29 113
r 160.801526 1 0 tcp 1060 ------- 2 1.0.1.0 0.0.0.0 29 113
+ 160.801526 0 1 ack 40 ------- 2 0.0.0.0 1.0.1.0 29 134
- 160.801526 0 1 ack 40 ------- 2 0.0.0.0 1.0.1.0 29 134
r 160.80359 0 1 ack 40 ------- 2 0.0.0.0 1.0.1.0 29 134
+ 160.80359 1 2 ack 40 ------- 2 0.0.0.0 1.0.1.0 29 134
- 160.80359 1 2 ack 40 ------- 2 0.0.0.0 1.0.1.0 29 134
r 160.805654 1 2 ack 40 ------- 2 0.0.0.0 1.0.1.0 29 134
r 160.812046623 _3_ AGT  --- 116 ack 40 [13a 1 2 800] ------- [0:0 4194305:0 28 4194305] [20 0] 2 0
s 160.812046623 _3_ AGT  --- 135 tcp 1040 [0 0 0 0] ------- [4194305:0 0:0 32 0] [40 0] 0 0
+ 160.822034 2 1 tcp 1060 ------- 2 1.0.1.0 0.0.0.0 30 114
- 160.822034 2 1 tcp 1060 ------- 2 1.0.1.0 0.0.0.0 30 114
r 160.82573 2 1 tcp 1060 ------- 2 1.0.1.0 0.0.0.0 30 114
+ 160.82573 1 0 tcp 1060 ------- 2 1.0.1.0 0.0.0.0 30 114
- 160.82573 1 0 tcp 1060 ------- 2 1.0.1.0 0.0.0.0 30 114
r 160.829426 1 0 tcp 1060 ------- 2 1.0.1.0 0.0.0.0 30 114
+ 160.829426 0 1 ack 40 ------- 2 0.0.0.0 1.0.1.0 30 136
- 160.829426 0 1 ack 40 ------- 2 0.0.0.0 1.0.1.0 30 136
r 160.83149 0 1 ack 40 ------- 2 0.0.0.0 1.0.1.0 30 136
+ 160.83149 1 2 ack 40 ------- 2 0.0.0.0 1.0.1.0 30 136
- 160.83149 1 2 ack 40 ------- 2 0.0.0.0 1.0.1.0 30 136
r 160.833554 1 2 ack 40 ------- 2 0.0.0.0 1.0.1.0 30 136
+ 160.834086 2 1 tcp 1060 ------- 2 1.0.1.0 0.0.0.0 31 117
- 160.834086 2 1 tcp 1060 ------- 2 1.0.1.0 0.0.0.0 31 117
r 160.837782 2 1 tcp 1060 ------- 2 1.0.1.0 0.0.0.0 31 117
+ 160.837782 1 0 tcp 1060 ------- 2 1.0.1.0 0.0.0.0 31 117
- 160.837782 1 0 tcp 1060 ------- 2 1.0.1.0 0.0.0.0 31 117
r 160.841478 1 0 tcp 1060 ------- 2 1.0.1.0 0.0.0.0 31 117
+ 160.841478 0 1 ack 40 ------- 2 0.0.0.0 1.0.1.0 31 137
- 160.841478 0 1 ack 40 ------- 2 0.0.0.0 1.0.1.0 31 137
r 160.843542 0 1 ack 40 ------- 2 0.0.0.0 1.0.1.0 31 137
+ 160.843542 1 2 ack 40 ------- 2 0.0.0.0 1.0.1.0 31 137
- 160.843542 1 2 ack 40 ------- 2 0.0.0.0 1.0.1.0 31 137
r 160.845606 1 2 ack 40 ------- 2 0.0.0.0 1.0.1.0 31 137
+ 160.858292 2 1 tcp 1060 ------- 2 1.0.1.0 0.0.0.0 32 118
- 160.858292 2 1 tcp 1060 ------- 2 1.0.1.0 0.0.0.0 32 118
r 160.860719498 _3_ AGT  --- 121 ack 40 [13a 1 2 800] ------- [0:0 4194305:0 28 4194305] [21 0] 2 0
s 160.860719498 _3_ AGT  --- 138 tcp 1040 [0 0 0 0] ------- [4194305:0 0:0 32 0] [41 0] 0 0
r 160.861988 2 1 tcp 1060 ------- 2 1.0.1.0 0.0.0.0 32 118
+ 160.861988 1 0 tcp 1060 ------- 2 1.0.1.0 0.0.0.0 32 118
- 160.861988 1 0 tcp 1060 ------- 2 1.0.1.0 0.0.0.0 32 118
r 160.865684 1 0 tcp 1060 ------- 2 1.0.1.0 0.0.0.0 32 118
+ 160.865684 0 1 ack 40 ------- 2 0.0.0.0 1.0.1.0 32 139
- 160.865684 0 1 ack 40 ------- 2 0.0.0.0 1.0.1.0 32 139
r 160.867748 0 1 ack 40 ------- 2 0.0.0.0 1.0.1.0 32 139
+ 160.867748 1 2 ack 40 ------- 2 0.0.0.0 1.0.1.0 32 139
- 160.867748 1 2 ack 40 ------- 2 0.0.0.0 1.0.1.0 32 139
r 160.869812 1 2 ack 40 ------- 2 0.0.0.0 1.0.1.0 32 139
+ 160.870847 2 1 tcp 1060 ------- 2 1.0.1.0 0.0.0.0 33 119
- 160.870847 2 1 tcp 1060 ------- 2 1.0.1.0 0.0.0.0 33 119
r 160.874543 2 1 tcp 1060 ------- 2 1.0.1.0 0.0.0.0 33 119
+ 160.874543 1 0 tcp 1060 ------- 2 1.0.1.0 0.0.0.0 33 119
- 160.874543 1 0 tcp 1060 ------- 2 1.0.1.0 0.0.0.0 33 119
r 160.878239 1 0 tcp 1060 ------- 2 1.0.1.0 0.0.0.0 33 119
+ 160.878239 0 1 ack 40 ------- 2 0.0.0.0 1.0.1.0 33 140
- 160.878239 0 1 ack 40 ------- 2 0.0.0.0 1.0.1.0 33 140
r 160.880303 0 1 ack 40 ------- 2 0.0.0.0 1.0.1.0 33 140
+ 160.880303 1 2 ack 40 ------- 2 0.0.0.0 1.0.1.0 33 140
- 160.880303 1 2 ack 40 ------- 2 0.0.0.0 1.0.1.0 33 140
r 160.882367 1 2 ack 40 ------- 2 0.0.0.0 1.0.1.0 33 140
+ 160.882859 2 1 tcp 1060 ------- 2 1.0.1.0 0.0.0.0 34 120
- 160.882859 2 1 tcp 1060 ------- 2 1.0.1.0 0.0.0.0 34 120
r 160.886555 2 1 tcp 1060 ------- 2 1.0.1.0 0.0.0.0 34 120
+ 160.886555 1 0 tcp 1060 ------- 2 1.0.1.0 0.0.0.0 34 120
- 160.886555 1 0 tcp 1060 ------- 2 1.0.1.0 0.0.0.0 34 120